18
 energy: -18.983916206549 gnorm: 0.000232518502 xtb: 6.4.0 (d4b70c2)
C        -1.41426058680708   -0.18525511784357    0.60833369983056
C        -0.93724905329009    0.96064440786001   -0.29369947299858
C         1.49192212229020    0.35362884093932   -0.07359481990697
H         0.71680630565873    2.34597728647416   -0.40818104342451
H         0.39412066768444    1.71830571826244    1.20426713750241
C         0.88808580833684   -1.04725665463557    0.08938197042188
H        -0.57151508566555   -2.04058058639243    1.33537998063549
H         0.14947908953072   -0.60289741706535    2.05082784688065
C         0.43895931451190    1.44787239983831    0.14727885494225
H         1.66524945356629   -1.75178889671176    0.39248916321964
H         0.48461988289222   -1.39596556154446   -0.86344062134696
C        -0.23574228156842   -1.02416905753451    1.11997233872181
H        -1.96415627016627    0.21872219313511    1.46111261644222
H        -2.10400533337530   -0.81929753381297    0.04708717498607
H        -0.87512674517703    0.62231155831131   -1.33001997885785
H        -1.65680789697122    1.78124717121647   -0.26051424547824
H         2.30666810047803    0.49064806649416    0.64075941284039
H         1.91813186009739    0.44560263238595   -1.07491016541274
