      -----------------------------------------------------------      
     |                   =====================                   |     
     |                           x T B                           |     
     |                   =====================                   |     
     |                         S. Grimme                         |     
     |          Mulliken Center for Theoretical Chemistry        |     
     |                    University of Bonn                     |     
      -----------------------------------------------------------      

   * xtb version 6.4.0 (d4b70c2) compiled by 'ehlert@majestix' on 2021-02-01

   xtb is free software: you can redistribute it and/or modify it under
   the terms of the GNU Lesser General Public License as published by
   the Free Software Foundation, either version 3 of the License, or
   (at your option) any later version.
   
   xtb is distributed in the hope that it will be useful,
   but WITHOUT ANY WARRANTY; without even the implied warranty of
   MERCHANTABILITY or FITNESS FOR A PARTICULAR PURPOSE.  See the
   GNU Lesser General Public License for more details.
   
   Cite this work as:
   * C. Bannwarth, E. Caldeweyher, S. Ehlert, A. Hansen, P. Pracht,
     J. Seibert, S. Spicher, S. Grimme, WIREs Comput. Mol. Sci., 2020,
     e01493. DOI: 10.1002/wcms.1493
   
   for GFN2-xTB:
   * C. Bannwarth, S. Ehlert and S. Grimme., J. Chem. Theory Comput., 2019,
     15, 1652-1671. DOI: 10.1021/acs.jctc.8b01176
   for GFN1-xTB:
   * S. Grimme, C. Bannwarth, P. Shushkov, J. Chem. Theory Comput., 2017,
     13, 1989-2009. DOI: 10.1021/acs.jctc.7b00118
   for GFN0-xTB:
   * P. Pracht, E. Caldeweyher, S. Ehlert, S. Grimme, ChemRxiv, 2019, preprint.
     DOI: 10.26434/chemrxiv.8326202.v1
   for GFN-FF:
   * S. Spicher and S. Grimme, Angew. Chem. Int. Ed., 2020, 59, 15665-15673.
     DOI: 10.1002/anie.202004239
   
   for DFT-D4:
   * E. Caldeweyher, C. Bannwarth and S. Grimme, J. Chem. Phys., 2017,
     147, 034112. DOI: 10.1063/1.4993215
   * E. Caldeweyher, S. Ehlert, A. Hansen, H. Neugebauer, S. Spicher,
     C. Bannwarth and S. Grimme, J. Chem. Phys., 2019, 150, 154122.
     DOI: 10.1063/1.5090222
   * E. Caldeweyher, J.-M. Mewes, S. Ehlert and S. Grimme, Phys. Chem. Chem. Phys.
     2020, 22, 8499-8512. DOI: 10.1039/D0CP00502A
   
   for sTDA-xTB:
   * S. Grimme and C. Bannwarth, J. Chem. Phys., 2016, 145, 054103.
     DOI: 10.1063/1.4959605
   
   in the mass-spec context:
   * V. Asgeirsson, C. Bauer and S. Grimme, Chem. Sci., 2017, 8, 4879.
     DOI: 10.1039/c7sc00601b
   * J. Koopman and S. Grimme, ACS Omega 2019, 4, 12, 15120-15133.
     DOI: 10.1021/acsomega.9b02011
   
   for metadynamics refer to:
   * S. Grimme, J. Chem. Theory Comput., 2019, 155, 2847-2862
     DOI: 10.1021/acs.jctc.9b00143
   
   with help from (in alphabetical order)
   P. Atkinson, C. Bannwarth, F. Bohle, G. Brandenburg, E. Caldeweyher
   M. Checinski, S. Dohm, S. Ehlert, S. Ehrlich, I. Gerasimov, J. Koopman
   C. Lavinge, S. Lehtola, F. März, M. Müller, F. Musil, H. Neugebauer
   J. Pisarek, P. Pracht, J. Seibert, P. Shushkov, S. Spicher, M. Stahn
   T. Strunk, J. Stückrath, T. Rose, and J. Unsleber
   
 * started run on 2021/11/09 at 14:29:43.367     

           -------------------------------------------------
          |                Calculation Setup                |
           -------------------------------------------------

          program call               : xtb cyclohexane-boat.xyz --gbsa toluene --ohess
          coordinate file            : cyclohexane-boat.xyz
          omp threads                :                     2
          number of atoms            :                    18
          number of electrons        :                    36
          charge                     :                     0
          spin                       :                   0.0
          first test random number   :      0.33257195086620

   ID    Z sym.   atoms
    1    6 C      1-3, 6, 9, 12
    2    1 H      4, 5, 7, 8, 10, 11, 13-18

           -------------------------------------------------
          |                 G F N 2 - x T B                 |
           -------------------------------------------------

        Reference                      10.1021/acs.jctc.8b01176
      * Hamiltonian:
        H0-scaling (s, p, d)           1.850000    2.230000    2.230000
        zeta-weighting                 0.500000
      * Dispersion:
        s8                             2.700000
        a1                             0.520000
        a2                             5.000000
        s9                             5.000000
      * Repulsion:
        kExp                           1.500000    1.000000
        rExp                           1.000000
      * Coulomb:
        alpha                          2.000000
        third order                    shell-resolved
        anisotropic                    true
        a3                             3.000000
        a5                             4.000000
        cn-shift                       1.200000
        cn-exp                         4.000000
        max-rad                        5.000000

      * Solvation model:               GBSA
        Solvent                        toluene
        Parameter file                 internal GFN2-xTB/GBSA
        Dielectric constant                7.0000E+00
        Reference state                gsolv [1 M gas/solution]
        Free energy shift                  4.5239E-03 Eh       2.8388E+00 kcal/mol
        Temperature                        2.9815E+02 K
        Density                            8.6700E-01 kg/L
        Solvent mass                       9.2140E+01 g/mol
        Interaction kernel             Still
        Born radius scaling (c1)           1.5686E+00
        Born radii integrator          GBOBC
        Born offset                        0.0000E+00 a0       0.0000E+00 AA
        H-bond correction              false
        Ion screening                  false
        Surface tension                    1.0000E-05 Eh       1.5569E+01 dyn/cm
        Grid points                               230 per atom
q/qsh data taken from xtbrestart
CAMM data taken from xtbrestart

          ...................................................
          :                      SETUP                      :
          :.................................................:
          :  # basis functions                  36          :
          :  # atomic orbitals                  36          :
          :  # shells                           24          :
          :  # electrons                        36          :
          :  max. iterations                   250          :
          :  Hamiltonian                  GFN2-xTB          :
          :  restarted?                       true          :
          :  GBSA solvation                   true          :
          :  PC potential                    false          :
          :  electronic temp.          300.0000000     K    :
          :  accuracy                    1.0000000          :
          :  -> integral cutoff          0.2500000E+02      :
          :  -> integral neglect         0.1000000E-07      :
          :  -> SCF convergence          0.1000000E-05 Eh   :
          :  -> wf. convergence          0.1000000E-03 e    :
          :  Broyden damping             0.4000000          :
          ...................................................

 iter      E             dE          RMSdq      gap      omega  full diag
   1    -19.2627305 -0.192627E+02  0.174E-07   13.19       0.0  T
   2    -19.2627305 -0.319744E-13  0.102E-07   13.19  100000.0  T
   3    -19.2627305  0.106581E-13  0.531E-08   13.19  100000.0  T

   *** convergence criteria satisfied after 3 iterations ***

         #    Occupation            Energy/Eh            Energy/eV
      -------------------------------------------------------------
         1        2.0000           -0.6292612             -17.1231
       ...           ...                  ...                  ...
        12        2.0000           -0.4585552             -12.4779
        13        2.0000           -0.4576413             -12.4531
        14        2.0000           -0.4481469             -12.1947
        15        2.0000           -0.4428234             -12.0498
        16        2.0000           -0.4113258             -11.1927
        17        2.0000           -0.4094924             -11.1429
        18        2.0000           -0.4046418             -11.0109 (HOMO)
        19                          0.0799032               2.1743 (LUMO)
        20                          0.0863265               2.3491
        21                          0.0975087               2.6533
        22                          0.0991691               2.6985
        23                          0.1195082               3.2520
       ...                                ...                  ...
        36                          0.3529263               9.6036
      -------------------------------------------------------------
                  HL-Gap            0.4845450 Eh           13.1851 eV
             Fermi-level           -0.1623693 Eh           -4.4183 eV

 SCC (total)                   0 d,  0 h,  0 min,  0.014 sec
 SCC setup                      ...        0 min,  0.001 sec (  4.939%)
 Dispersion                     ...        0 min,  0.000 sec (  1.106%)
 classical contributions        ...        0 min,  0.000 sec (  0.228%)
 integral evaluation            ...        0 min,  0.002 sec ( 13.750%)
 iterations                     ...        0 min,  0.006 sec ( 46.886%)
 molecular gradient             ...        0 min,  0.004 sec ( 31.913%)
 printout                       ...        0 min,  0.000 sec (  0.846%)

         :::::::::::::::::::::::::::::::::::::::::::::::::::::
         ::                     SUMMARY                     ::
         :::::::::::::::::::::::::::::::::::::::::::::::::::::
         :: total energy             -18.983915948702 Eh    ::
         :: total w/o Gsasa/hb       -18.978154461495 Eh    ::
         :: gradient norm              0.000291789457 Eh/a0 ::
         :: HOMO-LUMO gap             13.185140663029 eV    ::
         ::.................................................::
         :: SCC energy               -19.262730548803 Eh    ::
         :: -> isotropic ES            0.002689122944 Eh    ::
         :: -> anisotropic ES          0.005340139395 Eh    ::
         :: -> anisotropic XC          0.011127838219 Eh    ::
         :: -> dispersion             -0.011297770763 Eh    ::
         :: -> Gsolv                  -0.005787410841 Eh    ::
         ::    -> Gborn               -0.000025923634 Eh    ::
         ::    -> Gsasa               -0.010285367078 Eh    ::
         ::    -> Ghb                  0.000000000000 Eh    ::
         ::    -> Gshift               0.004523879872 Eh    ::
         :: repulsion energy           0.278785849554 Eh    ::
         :: add. restraining           0.000000000000 Eh    ::
         :: total charge               0.000000000000 e     ::
         :::::::::::::::::::::::::::::::::::::::::::::::::::::

      ----------------------------------------------------------- 
     |                   =====================                   |
     |                        A N C O P T                        |
     |                   =====================                   |
     |               Approximate Normal Coordinate               |
     |                Rational Function Optimizer                |
      ----------------------------------------------------------- 

          ...................................................
          :                      SETUP                      :
          :.................................................:
          :   optimization level            normal          :
          :   max. optcycles                   200          :
          :   ANC micro-cycles                  20          :
          :   degrees of freedom                48          :
          :.................................................:
          :   RF solver                   davidson          :
          :   write xtbopt.log                true          :
          :   linear?                        false          :
          :   energy convergence         0.5000000E-05 Eh   :
          :   grad. convergence          0.1000000E-02 Eh/α :
          :   maximium RF displ.         1.0000000          :
          :   Hlow (freq-cutoff)         0.1000000E-01      :
          :   Hmax (freq-cutoff)         5.0000000          :
          :   S6 in model hess.         20.0000000          :
          ...................................................

generating ANC from model Hessian ...
Using Lindh-Hessian (1995)
 Shifting diagonal of input Hessian by   2.311823856223361E-003
 Lowest  eigenvalues of input Hessian
    0.000000    0.000000    0.000000    0.000000    0.000000    0.000000
    0.010000    0.011693    0.017926    0.018030    0.029254    0.036005
    0.047578    0.049309    0.052932    0.052971    0.053272    0.053751
 Highest eigenvalues
    1.167419    1.175068    1.196446    1.229767    1.257455    1.267941
 

........................................................................
.............................. CYCLE    1 ..............................
........................................................................
   1    -19.2627305 -0.192627E+02  0.598E-09   13.19       0.0  T
   2    -19.2627305  0.106581E-13  0.358E-09   13.19  100000.0  T
   3    -19.2627305  0.213163E-13  0.908E-10   13.19  100000.0  T
     SCC iter.                  ...        0 min,  0.002 sec
     gradient                   ...        0 min,  0.004 sec
 * total energy  :   -18.9839159 Eh     change        0.2486900E-13 Eh
   gradient norm :     0.0002917 Eh/α   predicted     0.0000000E+00 (-100.00%)
   displ. norm   :     0.0070670 α      lambda       -0.8542556E-06
   maximum displ.:     0.0034727 α      in ANC's #8, #4, #5, ...

........................................................................
.............................. CYCLE    2 ..............................
........................................................................
   1    -19.2627812 -0.192628E+02  0.636E-03   13.18       0.0  T
   2    -19.2627812 -0.328412E-08  0.373E-03   13.18       6.3  T
   3    -19.2627812 -0.604121E-09  0.244E-04   13.18      96.7  T
   4    -19.2627812 -0.371028E-09  0.117E-04   13.18     201.6  T
     SCC iter.                  ...        0 min,  0.007 sec
     gradient                   ...        0 min,  0.005 sec
 * total energy  :   -18.9839162 Eh     change       -0.2578411E-06 Eh
   gradient norm :     0.0002325 Eh/α   predicted    -0.4270588E-06 (  65.63%)
   displ. norm   :     0.0040406 α      lambda       -0.3583232E-06
   maximum displ.:     0.0022199 α      in ANC's #4, #1, #3, ...

   *** GEOMETRY OPTIMIZATION CONVERGED AFTER 2 ITERATIONS ***

------------------------------------------------------------------------
 total energy gain   :        -0.0000003 Eh       -0.0002 kcal/mol
 total RMSD          :         0.0016657 a0        0.0009 Å
 total power (kW/mol):        -0.0003385 (step)   -0.0128 (real)
------------------------------------------------------------------------

 ANCopt (total)                0 d,  0 h,  0 min,  0.053 sec
 optimizer setup                ...        0 min,  0.000 sec (  0.738%)
 model hessian                  ...        0 min,  0.024 sec ( 45.737%)
 ANC generation                 ...        0 min,  0.001 sec (  1.261%)
 coordinate transformation      ...        0 min,  0.000 sec (  0.051%)
 single point calculation       ...        0 min,  0.027 sec ( 50.210%)
 optimization log               ...        0 min,  0.000 sec (  0.672%)
 hessian update                 ...        0 min,  0.000 sec (  0.040%)
 rational function              ...        0 min,  0.000 sec (  0.793%)

================
 final structure:
================
18
 xtb: 6.4.0 (d4b70c2)
C        -1.41426174027075   -0.18526358462585    0.60832843978447
C        -0.93725305798932    0.96064001302880   -0.29370106799806
C         1.49192052755876    0.35363678105800   -0.07358899490983
H         0.71679544695682    2.34598175203342   -0.40817444682892
H         0.39410746696361    1.71830568000220    1.20427151221533
C         0.88809097974034   -1.04725216061958    0.08938324264507
H        -0.57150906255476   -2.04058590948160    1.33537442420841
H         0.14947508755159   -0.60290021375622    2.05082731640338
C         0.43895121936086    1.44787444114909    0.14728291418979
H         1.66525725583290   -1.75178086249229    0.39249191863264
H         0.48463020611756   -1.39596151707420   -0.86344136608746
C        -0.23574082846807   -1.02417224658166    1.11996972832183
H        -1.96416251559929    0.21870935872297    1.46110614195261
H        -2.10400120786703   -0.81930863251646    0.04707840067340
H        -0.87512536092985    0.62230929747701   -1.33002194749714
H        -1.65681631416053    1.78123895085670   -0.26051692001174
H         2.30666329473279    0.49065902582242    0.64076832098067
H         1.91813327903380    0.44561455175456   -1.07490269212857
 
 Bond Distances (Angstroems)
 ---------------------------
C1-C2=1.5344         C1-C12=1.5344        C1-H13=1.0922        C1-H14=1.0921        C2-C1=1.5344         C2-C9=1.5251         
C2-H15=1.0919        C2-H16=1.0919        C3-C6=1.5342         C3-C9=1.5346         C3-H17=1.0922        C3-H18=1.0921        
H4-C9=1.0919         H5-C9=1.0920         C6-C3=1.5342         C6-H10=1.0919        C6-H11=1.0919        C6-C12=1.5250        
H7-C12=1.0919        H8-C12=1.0920        C9-C2=1.5251         C9-C3=1.5346         C9-H4=1.0919         C9-H5=1.0920         
H10-C6=1.0919        H11-C6=1.0919        C12-C1=1.5344        C12-C6=1.5250        C12-H7=1.0919        C12-H8=1.0920        
H13-C1=1.0922        H14-C1=1.0921        H15-C2=1.0919        H16-C2=1.0919        H17-C3=1.0922        H18-C3=1.0921        
 C  H  Rav=1.0920 sigma=0.0001  Rmin=1.0919  Rmax=1.0922    12
 C  C  Rav=1.5313 sigma=0.0044  Rmin=1.5250  Rmax=1.5346     6
 
 selected bond angles (degree)
 --------------------
C12-C1-C2=111.44               H13-C1-C2=109.84               H13-C1-C12=109.18              H14-C1-C2=109.14               
H14-C1-C12=109.82              H14-C1-H13=107.34              C9-C2-C1=110.44                H15-C2-C1=110.14               
H15-C2-C9=108.79               H16-C2-C1=109.79               H16-C2-C9=110.23               H16-C2-H15=107.41              
C9-C3-C6=111.45                H17-C3-C6=109.80               H17-C3-C9=109.16               H18-C3-C6=109.14               
H18-C3-C9=109.86               H18-C3-H17=107.34              H10-C6-C3=109.79               H11-C6-C3=110.14               
H11-C6-H10=107.41              C12-C6-C3=110.37               C12-C6-H10=110.28              C12-C6-H11=108.80              
C3-C9-C2=110.47                H4-C9-C2=110.20                H4-C9-C3=109.80                H5-C9-C2=108.78                
H5-C9-C3=110.13                H5-C9-H4=107.41                
 
 selected dihedral angles (degree)
 ---------------------------------
C9-C2-C1-C12=328.35           C9-C2-C1-H13= 89.48           C9-C2-C1-H14=206.89           H15-C2-C1-C12= 88.53          
H15-C2-C1-H13=209.65          H15-C2-C1-H14=327.07          H16-C2-C1-C12=206.60          H16-C2-C1-H13=327.73          
H16-C2-C1-H14= 85.15          H10-C6-C3-C9=206.36           H10-C6-C3-H17=327.44          H10-C6-C3-H18= 84.84          
H11-C6-C3-C9= 88.28           H11-C6-C3-H17=209.37          H11-C6-C3-H18=326.77          C12-C6-C3-C9=328.13           
C12-C6-C3-H17= 89.22          C12-C6-C3-H18=206.62          C3-C9-C2-C1= 66.02            C3-C9-C2-H15=305.04           
C3-C9-C2-H16=187.51           H4-C9-C2-C1=187.53            H4-C9-C2-H15= 66.55           H4-C9-C2-H16=309.02           
H5-C9-C2-C1=305.03            H5-C9-C2-H15=184.05           H5-C9-C2-H16= 66.52           C2-C9-C3-C6=328.59            
C2-C9-C3-H17=207.13           C2-C9-C3-H18= 89.68           H4-C9-C3-C6=206.84            H4-C9-C3-H17= 85.39           
H4-C9-C3-H18=327.94           H5-C9-C3-C6= 88.77            H5-C9-C3-H17=327.32           H5-C9-C3-H18=209.87           
           -------------------------------------------------
          |                Final Singlepoint                |
           -------------------------------------------------

          ...................................................
          :                      SETUP                      :
          :.................................................:
          :  # basis functions                  36          :
          :  # atomic orbitals                  36          :
          :  # shells                           24          :
          :  # electrons                        36          :
          :  max. iterations                   250          :
          :  Hamiltonian                  GFN2-xTB          :
          :  restarted?                      false          :
          :  GBSA solvation                   true          :
          :  PC potential                    false          :
          :  electronic temp.          300.0000000     K    :
          :  accuracy                    1.0000000          :
          :  -> integral cutoff          0.2500000E+02      :
          :  -> integral neglect         0.1000000E-07      :
          :  -> SCF convergence          0.1000000E-05 Eh   :
          :  -> wf. convergence          0.1000000E-03 e    :
          :  Broyden damping             0.4000000          :
          ...................................................

 iter      E             dE          RMSdq      gap      omega  full diag
   1    -19.2627812 -0.192628E+02  0.158E-05   13.18       0.0  T
   2    -19.2627812 -0.365930E-12  0.974E-06   13.18    2420.6  T
   3    -19.2627812 -0.461853E-13  0.363E-06   13.18    6494.7  T

   *** convergence criteria satisfied after 3 iterations ***

         #    Occupation            Energy/Eh            Energy/eV
      -------------------------------------------------------------
         1        2.0000           -0.6292622             -17.1231
       ...           ...                  ...                  ...
        12        2.0000           -0.4584894             -12.4761
        13        2.0000           -0.4576715             -12.4539
        14        2.0000           -0.4481194             -12.1940
        15        2.0000           -0.4428191             -12.0497
        16        2.0000           -0.4113959             -11.1947
        17        2.0000           -0.4094556             -11.1419
        18        2.0000           -0.4046158             -11.0102 (HOMO)
        19                          0.0797372               2.1698 (LUMO)
        20                          0.0866319               2.3574
        21                          0.0977618               2.6602
        22                          0.0990612               2.6956
        23                          0.1194241               3.2497
       ...                                ...                  ...
        36                          0.3529806               9.6051
      -------------------------------------------------------------
                  HL-Gap            0.4843531 Eh           13.1799 eV
             Fermi-level           -0.1624393 Eh           -4.4202 eV

 SCC (total)                   0 d,  0 h,  0 min,  0.010 sec
 SCC setup                      ...        0 min,  0.001 sec (  8.568%)
 Dispersion                     ...        0 min,  0.000 sec (  0.837%)
 classical contributions        ...        0 min,  0.000 sec (  0.250%)
 integral evaluation            ...        0 min,  0.002 sec ( 18.909%)
 iterations                     ...        0 min,  0.003 sec ( 26.231%)
 molecular gradient             ...        0 min,  0.004 sec ( 43.716%)
 printout                       ...        0 min,  0.000 sec (  1.058%)

         :::::::::::::::::::::::::::::::::::::::::::::::::::::
         ::                     SUMMARY                     ::
         :::::::::::::::::::::::::::::::::::::::::::::::::::::
         :: total energy             -18.983916206549 Eh    ::
         :: total w/o Gsasa/hb       -18.978154743122 Eh    ::
         :: gradient norm              0.000232518502 Eh/a0 ::
         :: HOMO-LUMO gap             13.179918228749 eV    ::
         ::.................................................::
         :: SCC energy               -19.262781191355 Eh    ::
         :: -> isotropic ES            0.002689195686 Eh    ::
         :: -> anisotropic ES          0.005339004846 Eh    ::
         :: -> anisotropic XC          0.011124447244 Eh    ::
         :: -> dispersion             -0.011297532143 Eh    ::
         :: -> Gsolv                  -0.005787400297 Eh    ::
         ::    -> Gborn               -0.000025936870 Eh    ::
         ::    -> Gsasa               -0.010285343299 Eh    ::
         ::    -> Ghb                  0.000000000000 Eh    ::
         ::    -> Gshift               0.004523879872 Eh    ::
         :: repulsion energy           0.278836232386 Eh    ::
         :: add. restraining           0.000000000000 Eh    ::
         :: total charge               0.000000000000 e     ::
         :::::::::::::::::::::::::::::::::::::::::::::::::::::

           ------------------------------------------------- 
          |                Numerical Hessian                |
           ------------------------------------------------- 
step length          :   0.00500
SCC accuracy         :   0.30000
Hessian scale factor :   1.00000
frozen atoms in %    :   0.00000    0
RMS gradient         :   0.00023
estimated CPU  time      0.04 min
estimated wall time      0.02 min

writing file <hessian>.

 projected vibrational frequencies (cm⁻¹)
eigval :       -0.00    -0.00    -0.00     0.00     0.00     0.00
eigval :      116.71   234.20   283.96   428.29   452.85   569.77
eigval :      794.60   805.43   865.12   933.90   934.97   937.58
eigval :      971.46   996.88  1091.83  1110.28  1117.62  1139.23
eigval :     1166.06  1184.76  1224.90  1233.02  1258.50  1261.00
eigval :     1325.87  1339.75  1344.34  1346.55  1349.50  1357.87
eigval :     1484.49  1489.67  1494.40  1501.41  1502.11  1517.13
eigval :     2953.14  2954.51  2964.08  2964.45  2969.57  2973.39
eigval :     2976.55  2977.21  2985.24  2985.35  2988.42  2991.16
           -------------------------------------------------
          |                Property Printout                |
           -------------------------------------------------

    * Orbital Energies and Occupations

         #    Occupation            Energy/Eh            Energy/eV
      -------------------------------------------------------------
         1        2.0000           -0.6292622             -17.1231
       ...           ...                  ...                  ...
         6        2.0000           -0.5287625             -14.3884
         7        2.0000           -0.5232553             -14.2385
         8        2.0000           -0.5194791             -14.1357
         9        2.0000           -0.4972299             -13.5303
        10        2.0000           -0.4722621             -12.8509
        11        2.0000           -0.4627684             -12.5926
        12        2.0000           -0.4584894             -12.4761
        13        2.0000           -0.4576715             -12.4539
        14        2.0000           -0.4481194             -12.1940
        15        2.0000           -0.4428191             -12.0497
        16        2.0000           -0.4113959             -11.1947
        17        2.0000           -0.4094556             -11.1419
        18        2.0000           -0.4046158             -11.0102 (HOMO)
        19                          0.0797372               2.1698 (LUMO)
        20                          0.0866319               2.3574
        21                          0.0977618               2.6602
        22                          0.0990612               2.6956
        23                          0.1194241               3.2497
        24                          0.1198777               3.2620
        25                          0.1331919               3.6243
        26                          0.1709242               4.6511
        27                          0.1842299               5.0132
        28                          0.1973542               5.3703
        29                          0.2059539               5.6043
       ...                                ...                  ...
        36                          0.3529806               9.6051
      -------------------------------------------------------------
                  HL-Gap            0.4843531 Eh           13.1799 eV
             Fermi-level           -0.1624393 Eh           -4.4202 eV

     #   Z          covCN         q      C6AA      α(0)
     1   6 C        3.803    -0.055    21.563     6.611
     2   6 C        3.803    -0.054    21.548     6.609
     3   6 C        3.803    -0.055    21.563     6.611
     4   1 H        0.924     0.025     2.659     2.550
     5   1 H        0.924     0.031     2.571     2.507
     6   6 C        3.803    -0.054    21.548     6.609
     7   1 H        0.924     0.025     2.660     2.550
     8   1 H        0.924     0.031     2.570     2.507
     9   6 C        3.803    -0.054    21.549     6.609
    10   1 H        0.924     0.025     2.660     2.550
    11   1 H        0.924     0.031     2.570     2.507
    12   6 C        3.803    -0.054    21.549     6.609
    13   1 H        0.924     0.026     2.646     2.544
    14   1 H        0.924     0.026     2.646     2.544
    15   1 H        0.924     0.031     2.571     2.507
    16   1 H        0.924     0.025     2.659     2.550
    17   1 H        0.924     0.026     2.646     2.544
    18   1 H        0.924     0.026     2.647     2.544

 Mol. C6AA /au·bohr⁶  :       2230.227790
 Mol. C8AA /au·bohr⁸  :      47134.938081
 Mol. α(0) /au        :         70.062149


Wiberg/Mayer (AO) data.
largest (>0.10) Wiberg bond orders for each atom

 ---------------------------------------------------------------------------
     #   Z sym  total        # sym  WBO       # sym  WBO       # sym  WBO
 ---------------------------------------------------------------------------
     1   6 C    3.998 --    12 C    1.005     2 C    1.005    14 H    0.982
                            13 H    0.982
     2   6 C    3.998 --     9 C    1.010     1 C    1.005    15 H    0.980
                            16 H    0.979
     3   6 C    3.998 --     6 C    1.005     9 C    1.005    18 H    0.982
                            17 H    0.982
     4   1 H    0.999 --     9 C    0.979
     5   1 H    0.999 --     9 C    0.980
     6   6 C    3.998 --    12 C    1.010     3 C    1.005    11 H    0.980
                            10 H    0.979
     7   1 H    0.999 --    12 C    0.979
     8   1 H    0.999 --    12 C    0.980
     9   6 C    3.998 --     2 C    1.010     3 C    1.005     5 H    0.980
                             4 H    0.979
    10   1 H    0.999 --     6 C    0.979
    11   1 H    0.999 --     6 C    0.980
    12   6 C    3.998 --     6 C    1.010     1 C    1.005     8 H    0.980
                             7 H    0.979
    13   1 H    0.999 --     1 C    0.982
    14   1 H    0.999 --     1 C    0.982
    15   1 H    0.999 --     2 C    0.980
    16   1 H    0.999 --     2 C    0.979
    17   1 H    0.999 --     3 C    0.982
    18   1 H    0.999 --     3 C    0.982
 ---------------------------------------------------------------------------

Topologies differ in total number of bonds
Writing topology from bond orders to xtbtopo.mol

molecular dipole:
                 x           y           z       tot (Debye)
 q only:       -0.000       0.000       0.000
   full:       -0.000       0.000      -0.000       0.001
molecular quadrupole (traceless):
                xx          xy          yy          xz          yz          zz
 q only:       -0.022      -0.011       0.022       0.008      -0.006       0.000
  q+dip:       -0.763       0.037      -0.337       0.348       0.583       1.100
   full:       -0.414       0.004      -0.142       0.186       0.287       0.556

           -------------------------------------------------
          |                Geometry Summary                 |
           -------------------------------------------------

      molecular mass/u    :       84.1597044
   center of mass at/Å    :        0.0386196       0.0842604       0.2662729
  moments of inertia/u·Å² :        0.1129250E+03   0.1202313E+03   0.1949707E+03
rotational constants/cm⁻¹ :        0.1492817E+00   0.1402100E+00   0.8646237E-01

 * 18 selected distances

     #   Z          #   Z                                           value/Å
     1   6 C        2   6 C                                       1.5343694
     3   6 C        6   6 C                                       1.5341642
     2   6 C        9   6 C                                       1.5250582
     3   6 C        9   6 C                                       1.5345634 (max)
     4   1 H        9   6 C                                       1.0919373
     5   1 H        9   6 C                                       1.0919565
     6   6 C       10   1 H                                       1.0918896 (min)
     6   6 C       11   1 H                                       1.0919036
     1   6 C       12   6 C                                       1.5344237
     6   6 C       12   6 C                                       1.5250046
     7   1 H       12   6 C                                       1.0918957
     8   1 H       12   6 C                                       1.0919511
     1   6 C       13   1 H                                       1.0921606
     1   6 C       14   1 H                                       1.0921334
     2   6 C       15   1 H                                       1.0919196
     2   6 C       16   1 H                                       1.0919043
     3   6 C       17   1 H                                       1.0921938
     3   6 C       18   1 H                                       1.0921293

 * 2 distinct bonds (by element types)

   Z      Z             #   av. dist./Å        max./Å        min./Å
   1 H    6 C          12     1.0919979     1.0921938     1.0918896
   6 C    6 C           6     1.5312639     1.5345634     1.5250046

           -------------------------------------------------
          |               Frequency Printout                |
           -------------------------------------------------
 projected vibrational frequencies (cm⁻¹)
eigval :       -0.00    -0.00    -0.00     0.00     0.00     0.00
eigval :      116.71   234.20   283.96   428.29   452.85   569.77
eigval :      794.60   805.43   865.12   933.90   934.97   937.58
eigval :      971.46   996.88  1091.83  1110.28  1117.62  1139.23
eigval :     1166.06  1184.76  1224.90  1233.02  1258.50  1261.00
eigval :     1325.87  1339.75  1344.34  1346.55  1349.50  1357.87
eigval :     1484.49  1489.67  1494.40  1501.41  1502.11  1517.13
eigval :     2953.14  2954.51  2964.08  2964.45  2969.57  2973.39
eigval :     2976.55  2977.21  2985.24  2985.35  2988.42  2991.16
 reduced masses (amu)
   1:  9.15   2:  9.69   3: 10.00   4:  9.50   5:  9.25   6: 10.07   7:  6.03   8:  5.15
   9:  6.60  10:  8.30  11: 10.28  12:  5.97  13:  2.63  14:  3.89  15:  8.63  16:  4.87
  17:  7.55  18:  7.63  19:  5.04  20:  7.23  21:  6.26  22:  1.35  23:  6.52  24:  7.29
  25:  7.19  26:  4.32  27:  4.22  28:  2.66  29:  3.70  30:  2.21  31:  4.23  32:  4.67
  33:  4.39  34:  3.75  35:  4.70  36:  5.20  37:  1.85  38:  1.82  39:  1.99  40:  1.99
  41:  1.88  42:  1.98  43:  1.91  44:  1.97  45:  1.93  46:  1.94  47:  2.03  48:  1.84
  49:  1.50  50:  1.57  51:  1.51  52:  1.49  53:  1.69  54:  1.50
 IR intensities (km·mol⁻¹)
   1:  0.00   2:  0.00   3:  0.00   4:  0.00   5:  0.00   6:  0.00   7:  0.00   8:  0.13
   9:  0.00  10:  1.88  11:  0.00  12:  1.71  13:  4.00  14:  6.07  15:  0.00  16:  0.10
  17:  0.56  18:  1.87  19:  0.00  20:  2.82  21:  0.00  22:  0.09  23:  0.07  24:  0.28
  25:  2.05  26:  0.00  27:  1.39  28:  0.00  29:  0.00  30:  0.79  31:  0.04  32:  1.05
  33: 11.51  34:  0.59  35:  7.32  36:  0.02  37:  0.52  38:  0.00  39:  0.09  40:  0.08
  41:  0.47  42:  0.00  43:  8.99  44:  6.88  45:  0.08  46: 31.11  47: 57.41  48: 56.89
  49:  0.47  50: 75.34  51:179.87  52:142.46  53:315.49  54:  0.37
 Raman intensities (amu)
   1:  0.00   2:  0.00   3:  0.00   4:  0.00   5:  0.00   6:  0.00   7:  0.00   8:  0.00
   9:  0.00  10:  0.00  11:  0.00  12:  0.00  13:  0.00  14:  0.00  15:  0.00  16:  0.00
  17:  0.00  18:  0.00  19:  0.00  20:  0.00  21:  0.00  22:  0.00  23:  0.00  24:  0.00
  25:  0.00  26:  0.00  27:  0.00  28:  0.00  29:  0.00  30:  0.00  31:  0.00  32:  0.00
  33:  0.00  34:  0.00  35:  0.00  36:  0.00  37:  0.00  38:  0.00  39:  0.00  40:  0.00
  41:  0.00  42:  0.00  43:  0.00  44:  0.00  45:  0.00  46:  0.00  47:  0.00  48:  0.00
  49:  0.00  50:  0.00  51:  0.00  52:  0.00  53:  0.00  54:  0.00
 output can be read by thermo (or use thermo option).
 writing <g98.out> molden fake output.
 recommended (thermochemical) frequency scaling factor: 1.0
           -------------------------------------------------
          |             Thermodynamic Functions             |
           -------------------------------------------------

Molecule has the following symmetry elements: 3*(C2) 
It seems to be the D2 point group
d2  symmetry found (for desy threshold:  0.10E+00) used in thermo

          ...................................................
          :                      SETUP                      :
          :.................................................:
          :  # frequencies                          48      :
          :  # imaginary freq.                       0      :
          :  linear?                             false      :
          :  only rotor calc.                    false      :
          :  symmetry                               d2      :
          :  rotational number                       4      :
          :  scaling factor                  1.0000000      :
          :  rotor cutoff                   50.0000000 cm⁻¹ :
          :  imag. cutoff                  -20.0000000 cm⁻¹ :
          :.................................................:

    mode    ω/cm⁻¹     T·S(HO)/kcal·mol⁻¹    T·S(FR)/kcal·mol⁻¹   T·S(vib)
   ------------------------------------------------------------------------
       1    116.71    -0.94040 ( 96.74%)    -0.80514 (  3.26%)    -0.93600
       2    234.20    -0.55054 ( 99.79%)    -0.59896 (  0.21%)    -0.55064
       3    283.96    -0.45012 ( 99.90%)    -0.54191 (  0.10%)    -0.45020
   ------------------------------------------------------------------------

   temp. (K)  partition function   enthalpy   heat capacity  entropy
                                   cal/mol     cal/K/mol   cal/K/mol   J/K/mol
 298.15  VIB   7.42                 1936.725     16.738     10.464
         ROT  0.311E+05              888.752      2.981     23.537
         INT  0.230E+06             2825.477     19.719     34.001
         TR   0.747E+27             1481.254      4.968     39.186
         TOT                        4306.7313    24.6872    73.1874   306.2161

       T/K    H(0)-H(T)+PV         H(T)/Eh          T*S/Eh         G(T)/Eh
   ------------------------------------------------------------------------
    298.15    0.686321E-02    0.175104E+00    0.347737E-01    0.140330E+00
   ------------------------------------------------------------------------

         :::::::::::::::::::::::::::::::::::::::::::::::::::::
         ::                  THERMODYNAMIC                  ::
         :::::::::::::::::::::::::::::::::::::::::::::::::::::
         :: total free energy         -18.843586080956 Eh   ::
         ::.................................................::
         :: total energy              -18.983916206438 Eh   ::
         :: zero point energy           0.168240608476 Eh   ::
         :: G(RRHO) w/o ZPVE           -0.027910482995 Eh   ::
         :: G(RRHO) contrib.            0.140330125482 Eh   ::
         :::::::::::::::::::::::::::::::::::::::::::::::::::::

optimized geometry written to: xtbopt.xyz


           -------------------------------------------------
          | TOTAL ENERGY              -18.983916206438 Eh   |
          | TOTAL ENTHALPY            -18.808812384731 Eh   |
          | TOTAL FREE ENERGY         -18.843586080956 Eh   |
          | GRADIENT NORM               0.000232519073 Eh/α |
          | HOMO-LUMO GAP              13.179918247315 eV   |
           -------------------------------------------------

------------------------------------------------------------------------
 * finished run on 2021/11/09 at 14:29:44.001     
------------------------------------------------------------------------
 total:
 * wall-time:     0 d,  0 h,  0 min,  0.633 sec
 *  cpu-time:     0 d,  0 h,  0 min,  1.203 sec
 * ratio c/w:     1.900 speedup
 SCF:
 * wall-time:     0 d,  0 h,  0 min,  0.014 sec
 *  cpu-time:     0 d,  0 h,  0 min,  0.023 sec
 * ratio c/w:     1.643 speedup
 ANC optimizer:
 * wall-time:     0 d,  0 h,  0 min,  0.066 sec
 *  cpu-time:     0 d,  0 h,  0 min,  0.121 sec
 * ratio c/w:     1.837 speedup
 numerical hessian:
 * wall-time:     0 d,  0 h,  0 min,  0.500 sec
 *  cpu-time:     0 d,  0 h,  0 min,  0.990 sec
 * ratio c/w:     1.978 speedup

