18
 energy: -18.992489233392 gnorm: 0.000127918371 xtb: 6.4.0 (d4b70c2)
C         0.08084141526299   -1.44584908980143   -0.24121250463606
C        -1.21181350150630   -0.79298357604381    0.24134987484295
C        -0.08101685425041    1.44584648958312    0.24113406465300
H        -1.32326464430069    0.66814565741111   -1.33372455705503
H        -2.21147961908704    1.11697833591968    0.12532645606675
C         1.21187661629254    0.79310107004886   -0.24098574776833
H         2.21137064021302   -1.11688930326916   -0.12619740484174
H         1.32381341495010   -0.66869460572262    1.33347351279754
C        -1.29274243408655    0.65283017529975   -0.24132173145932
H         2.07291558566047    1.35663897955983    0.12644443298470
H         1.24119925069542    0.81234006139997   -1.33339648351024
C         1.29280838157942   -0.65296220660295    0.24100207535956
H         0.13838529960735   -2.47349571752162    0.12553445106309
H         0.08255480874336   -1.48009341108166   -1.33367594965828
H        -2.07311656277841   -1.35672162355013   -0.12509374813891
H        -1.24025633803425   -0.81160022779334    1.33382258932761
H        -0.08312134087219    1.48012088941166    1.33359782728790
H        -0.13844783131478    2.47347518984905   -0.12570632390899
