      -----------------------------------------------------------      
     |                   =====================                   |     
     |                           x T B                           |     
     |                   =====================                   |     
     |                         S. Grimme                         |     
     |          Mulliken Center for Theoretical Chemistry        |     
     |                    University of Bonn                     |     
      -----------------------------------------------------------      

   * xtb version 6.4.0 (d4b70c2) compiled by 'ehlert@majestix' on 2021-02-01

   xtb is free software: you can redistribute it and/or modify it under
   the terms of the GNU Lesser General Public License as published by
   the Free Software Foundation, either version 3 of the License, or
   (at your option) any later version.
   
   xtb is distributed in the hope that it will be useful,
   but WITHOUT ANY WARRANTY; without even the implied warranty of
   MERCHANTABILITY or FITNESS FOR A PARTICULAR PURPOSE.  See the
   GNU Lesser General Public License for more details.
   
   Cite this work as:
   * C. Bannwarth, E. Caldeweyher, S. Ehlert, A. Hansen, P. Pracht,
     J. Seibert, S. Spicher, S. Grimme, WIREs Comput. Mol. Sci., 2020,
     e01493. DOI: 10.1002/wcms.1493
   
   for GFN2-xTB:
   * C. Bannwarth, S. Ehlert and S. Grimme., J. Chem. Theory Comput., 2019,
     15, 1652-1671. DOI: 10.1021/acs.jctc.8b01176
   for GFN1-xTB:
   * S. Grimme, C. Bannwarth, P. Shushkov, J. Chem. Theory Comput., 2017,
     13, 1989-2009. DOI: 10.1021/acs.jctc.7b00118
   for GFN0-xTB:
   * P. Pracht, E. Caldeweyher, S. Ehlert, S. Grimme, ChemRxiv, 2019, preprint.
     DOI: 10.26434/chemrxiv.8326202.v1
   for GFN-FF:
   * S. Spicher and S. Grimme, Angew. Chem. Int. Ed., 2020, 59, 15665-15673.
     DOI: 10.1002/anie.202004239
   
   for DFT-D4:
   * E. Caldeweyher, C. Bannwarth and S. Grimme, J. Chem. Phys., 2017,
     147, 034112. DOI: 10.1063/1.4993215
   * E. Caldeweyher, S. Ehlert, A. Hansen, H. Neugebauer, S. Spicher,
     C. Bannwarth and S. Grimme, J. Chem. Phys., 2019, 150, 154122.
     DOI: 10.1063/1.5090222
   * E. Caldeweyher, J.-M. Mewes, S. Ehlert and S. Grimme, Phys. Chem. Chem. Phys.
     2020, 22, 8499-8512. DOI: 10.1039/D0CP00502A
   
   for sTDA-xTB:
   * S. Grimme and C. Bannwarth, J. Chem. Phys., 2016, 145, 054103.
     DOI: 10.1063/1.4959605
   
   in the mass-spec context:
   * V. Asgeirsson, C. Bauer and S. Grimme, Chem. Sci., 2017, 8, 4879.
     DOI: 10.1039/c7sc00601b
   * J. Koopman and S. Grimme, ACS Omega 2019, 4, 12, 15120-15133.
     DOI: 10.1021/acsomega.9b02011
   
   for metadynamics refer to:
   * S. Grimme, J. Chem. Theory Comput., 2019, 155, 2847-2862
     DOI: 10.1021/acs.jctc.9b00143
   
   with help from (in alphabetical order)
   P. Atkinson, C. Bannwarth, F. Bohle, G. Brandenburg, E. Caldeweyher
   M. Checinski, S. Dohm, S. Ehlert, S. Ehrlich, I. Gerasimov, J. Koopman
   C. Lavinge, S. Lehtola, F. März, M. Müller, F. Musil, H. Neugebauer
   J. Pisarek, P. Pracht, J. Seibert, P. Shushkov, S. Spicher, M. Stahn
   T. Strunk, J. Stückrath, T. Rose, and J. Unsleber
   
 * started run on 2021/11/09 at 14:30:42.251     

           -------------------------------------------------
          |                Calculation Setup                |
           -------------------------------------------------

          program call               : xtb cyclohexane-chair.xyz --gbsa toluene --ohess
          coordinate file            : cyclohexane-chair.xyz
          omp threads                :                     2
          number of atoms            :                    18
          number of electrons        :                    36
          charge                     :                     0
          spin                       :                   0.0
          first test random number   :      0.27613168650828

   ID    Z sym.   atoms
    1    6 C      1-3, 6, 9, 12
    2    1 H      4, 5, 7, 8, 10, 11, 13-18

           -------------------------------------------------
          |                 G F N 2 - x T B                 |
           -------------------------------------------------

        Reference                      10.1021/acs.jctc.8b01176
      * Hamiltonian:
        H0-scaling (s, p, d)           1.850000    2.230000    2.230000
        zeta-weighting                 0.500000
      * Dispersion:
        s8                             2.700000
        a1                             0.520000
        a2                             5.000000
        s9                             5.000000
      * Repulsion:
        kExp                           1.500000    1.000000
        rExp                           1.000000
      * Coulomb:
        alpha                          2.000000
        third order                    shell-resolved
        anisotropic                    true
        a3                             3.000000
        a5                             4.000000
        cn-shift                       1.200000
        cn-exp                         4.000000
        max-rad                        5.000000

      * Solvation model:               GBSA
        Solvent                        toluene
        Parameter file                 internal GFN2-xTB/GBSA
        Dielectric constant                7.0000E+00
        Reference state                gsolv [1 M gas/solution]
        Free energy shift                  4.5239E-03 Eh       2.8388E+00 kcal/mol
        Temperature                        2.9815E+02 K
        Density                            8.6700E-01 kg/L
        Solvent mass                       9.2140E+01 g/mol
        Interaction kernel             Still
        Born radius scaling (c1)           1.5686E+00
        Born radii integrator          GBOBC
        Born offset                        0.0000E+00 a0       0.0000E+00 AA
        H-bond correction              false
        Ion screening                  false
        Surface tension                    1.0000E-05 Eh       1.5569E+01 dyn/cm
        Grid points                               230 per atom

          ...................................................
          :                      SETUP                      :
          :.................................................:
          :  # basis functions                  36          :
          :  # atomic orbitals                  36          :
          :  # shells                           24          :
          :  # electrons                        36          :
          :  max. iterations                   250          :
          :  Hamiltonian                  GFN2-xTB          :
          :  restarted?                      false          :
          :  GBSA solvation                   true          :
          :  PC potential                    false          :
          :  electronic temp.          300.0000000     K    :
          :  accuracy                    1.0000000          :
          :  -> integral cutoff          0.2500000E+02      :
          :  -> integral neglect         0.1000000E-07      :
          :  -> SCF convergence          0.1000000E-05 Eh   :
          :  -> wf. convergence          0.1000000E-03 e    :
          :  Broyden damping             0.4000000          :
          ...................................................

 iter      E             dE          RMSdq      gap      omega  full diag
   1    -19.2206858 -0.192207E+02  0.253E+00   13.66       0.0  T
   2    -19.2720998 -0.514140E-01  0.144E+00   13.75       1.0  T
   3    -19.2724880 -0.388183E-03  0.769E-01   13.71       1.0  T
   4    -19.2726222 -0.134159E-03  0.791E-02   13.65       1.0  T
   5    -19.2726227 -0.551167E-06  0.513E-03   13.65       4.6  T
   6    -19.2726227 -0.103318E-07  0.239E-03   13.65       9.9  T
   7    -19.2726227 -0.359575E-08  0.119E-04   13.65     197.9  T
   8    -19.2726227  0.141398E-11  0.276E-05   13.65     854.0  T

   *** convergence criteria satisfied after 8 iterations ***

         #    Occupation            Energy/Eh            Energy/eV
      -------------------------------------------------------------
         1        2.0000           -0.6297503             -17.1364
       ...           ...                  ...                  ...
        12        2.0000           -0.4621613             -12.5760
        13        2.0000           -0.4621412             -12.5755
        14        2.0000           -0.4349490             -11.8356
        15        2.0000           -0.4349400             -11.8353
        16        2.0000           -0.4175811             -11.3630
        17        2.0000           -0.4100074             -11.1569
        18        2.0000           -0.4099931             -11.1565 (HOMO)
        19                          0.0917088               2.4955 (LUMO)
        20                          0.1009616               2.7473
        21                          0.1009744               2.7477
        22                          0.1147602               3.1228
        23                          0.1148550               3.1254
       ...                                ...                  ...
        36                          0.3073840               8.3643
      -------------------------------------------------------------
                  HL-Gap            0.5017019 Eh           13.6520 eV
             Fermi-level           -0.1591421 Eh           -4.3305 eV

 SCC (total)                   0 d,  0 h,  0 min,  0.012 sec
 SCC setup                      ...        0 min,  0.001 sec (  7.926%)
 Dispersion                     ...        0 min,  0.000 sec (  1.306%)
 classical contributions        ...        0 min,  0.000 sec (  0.285%)
 integral evaluation            ...        0 min,  0.002 sec ( 15.972%)
 iterations                     ...        0 min,  0.004 sec ( 37.507%)
 molecular gradient             ...        0 min,  0.004 sec ( 35.586%)
 printout                       ...        0 min,  0.000 sec (  0.984%)

         :::::::::::::::::::::::::::::::::::::::::::::::::::::
         ::                     SUMMARY                     ::
         :::::::::::::::::::::::::::::::::::::::::::::::::::::
         :: total energy             -18.992489233389 Eh    ::
         :: total w/o Gsasa/hb       -18.986735304561 Eh    ::
         :: gradient norm              0.000127903783 Eh/a0 ::
         :: HOMO-LUMO gap             13.652003952912 eV    ::
         ::.................................................::
         :: SCC energy               -19.272622722777 Eh    ::
         :: -> isotropic ES            0.002663337425 Eh    ::
         :: -> anisotropic ES          0.005185375423 Eh    ::
         :: -> anisotropic XC          0.010986023747 Eh    ::
         :: -> dispersion             -0.011266813287 Eh    ::
         :: -> Gsolv                  -0.005777108381 Eh    ::
         ::    -> Gborn               -0.000023179553 Eh    ::
         ::    -> Gsasa               -0.010277808699 Eh    ::
         ::    -> Ghb                  0.000000000000 Eh    ::
         ::    -> Gshift               0.004523879872 Eh    ::
         :: repulsion energy           0.280105189675 Eh    ::
         :: add. restraining           0.000000000000 Eh    ::
         :: total charge               0.000000000000 e     ::
         :::::::::::::::::::::::::::::::::::::::::::::::::::::

      ----------------------------------------------------------- 
     |                   =====================                   |
     |                        A N C O P T                        |
     |                   =====================                   |
     |               Approximate Normal Coordinate               |
     |                Rational Function Optimizer                |
      ----------------------------------------------------------- 

          ...................................................
          :                      SETUP                      :
          :.................................................:
          :   optimization level            normal          :
          :   max. optcycles                   200          :
          :   ANC micro-cycles                  20          :
          :   degrees of freedom                48          :
          :.................................................:
          :   RF solver                   davidson          :
          :   write xtbopt.log                true          :
          :   linear?                        false          :
          :   energy convergence         0.5000000E-05 Eh   :
          :   grad. convergence          0.1000000E-02 Eh/α :
          :   maximium RF displ.         1.0000000          :
          :   Hlow (freq-cutoff)         0.1000000E-01      :
          :   Hmax (freq-cutoff)         5.0000000          :
          :   S6 in model hess.         20.0000000          :
          ...................................................

generating ANC from model Hessian ...
Using Lindh-Hessian (1995)
 Shifting diagonal of input Hessian by   1.191665356587449E-003
 Lowest  eigenvalues of input Hessian
    0.000000    0.000000    0.000000    0.000000    0.000000    0.000000
    0.010000    0.010000    0.019157    0.020457    0.024913    0.024917
    0.051239    0.052416    0.052423    0.052901    0.052907    0.055852
 Highest eigenvalues
    1.194863    1.195012    1.215847    1.222459    1.275247    1.275281
 

........................................................................
.............................. CYCLE    1 ..............................
........................................................................
   1    -19.2726227 -0.192726E+02  0.122E-06   13.65       0.0  T
   2    -19.2726227  0.000000E+00  0.669E-07   13.65   35254.0  T
   3    -19.2726227 -0.142109E-13  0.335E-07   13.65   70321.1  T
     SCC iter.                  ...        0 min,  0.002 sec
     gradient                   ...        0 min,  0.003 sec
 * total energy  :   -18.9924892 Eh     change       -0.3698375E-11 Eh
   gradient norm :     0.0001240 Eh/α   predicted     0.0000000E+00 (-100.00%)
   displ. norm   :     0.0027034 α      lambda       -0.1130831E-06
   maximum displ.:     0.0013342 α      in ANC's #1, #3, #11, ...

   *** GEOMETRY OPTIMIZATION CONVERGED AFTER 1 ITERATIONS ***

------------------------------------------------------------------------
 total energy gain   :        -0.0000000 Eh       -0.0000 kcal/mol
 total RMSD          :         0.0000000 a0        0.0000 Å
 total power (kW/mol):        -0.0000000 (step)   -0.0000 (real)
------------------------------------------------------------------------

 ANCopt (total)                0 d,  0 h,  0 min,  0.027 sec
 optimizer setup                ...        0 min,  0.000 sec (  0.386%)
 model hessian                  ...        0 min,  0.018 sec ( 66.497%)
 ANC generation                 ...        0 min,  0.000 sec (  1.335%)
 coordinate transformation      ...        0 min,  0.000 sec (  0.049%)
 single point calculation       ...        0 min,  0.008 sec ( 28.426%)
 optimization log               ...        0 min,  0.000 sec (  0.783%)
 hessian update                 ...        0 min,  0.000 sec (  0.019%)
 rational function              ...        0 min,  0.000 sec (  1.278%)

================
 final structure:
================
18
 xtb: 6.4.0 (d4b70c2)
C         0.08084982770000   -1.44584824550000   -0.24121474590000
C        -1.21181019190000   -0.79299034230000    0.24134426080000
C        -0.08102526640000    1.44584564450000    0.24113630530000
H        -1.32326348710000    0.66814105660000   -1.33372801000000
H        -2.21148590500000    1.11696653790000    0.12532068600000
C         1.21187330480000    0.79310783600000   -0.24098013330000
H         2.21137692870000   -1.11687750430000   -0.12619163500000
H         1.32381226150000   -0.66869000160000    1.33347696670000
C        -1.29274500990000    0.65282382770000   -0.24132510460000
H         2.07290804090000    1.35664961260000    0.12645403660000
H         1.24119965170000    0.81234888750000   -1.33339073310000
C         1.29281095920000   -0.65295585810000    0.24100544850000
H         0.13839781260000   -2.47349521200000    0.12553061710000
H         0.08256721390000   -1.48009065110000   -1.33367824470000
H        -2.07310902230000   -1.35673226000000   -0.12510335260000
H        -1.24025674440000   -0.81160904970000    1.33381684350000
H        -0.08313374590000    1.48011812660000    1.33360012040000
H        -0.13846034360000    2.47347468430000   -0.12570249020000
 
 Bond Distances (Angstroems)
 ---------------------------
C1-C2=1.5265         C1-C12=1.5265        C1-H13=1.0926        C1-H14=1.0930        C2-C1=1.5265         C2-C9=1.5264         
C2-H15=1.0927        C2-H16=1.0930        C3-C6=1.5265         C3-C9=1.5264         C3-H17=1.0930        C3-H18=1.0927        
H4-C9=1.0929         H5-C9=1.0927         C6-C3=1.5265         C6-H10=1.0927        C6-H11=1.0930        C6-C12=1.5264        
H7-C12=1.0926        H8-C12=1.0930        C9-C2=1.5264         C9-C3=1.5264         C9-H4=1.0929         C9-H5=1.0927         
H10-C6=1.0927        H11-C6=1.0930        C12-C1=1.5265        C12-C6=1.5264        C12-H7=1.0926        C12-H8=1.0930        
H13-C1=1.0926        H14-C1=1.0930        H15-C2=1.0927        H16-C2=1.0930        H17-C3=1.0930        H18-C3=1.0927        
 C  H  Rav=1.0928 sigma=0.0002  Rmin=1.0926  Rmax=1.0930    12
 C  C  Rav=1.5264 sigma=0.0000  Rmin=1.5264  Rmax=1.5265     6
 
 selected bond angles (degree)
 --------------------
C12-C1-C2=110.51               H13-C1-C2=109.92               H13-C1-C12=109.92              H14-C1-C2=109.31               
H14-C1-C12=109.32              H14-C1-H13=107.81              C9-C2-C1=110.49                H15-C2-C1=109.93               
H15-C2-C9=109.93               H16-C2-C1=109.31               H16-C2-C9=109.32               H16-C2-H15=107.81              
C9-C3-C6=110.51                H17-C3-C6=109.31               H17-C3-C9=109.31               H18-C3-C6=109.92               
H18-C3-C9=109.92               H18-C3-H17=107.82              H10-C6-C3=109.92               H11-C6-C3=109.32               
H11-C6-H10=107.81              C12-C6-C3=110.50               C12-C6-H10=109.91              C12-C6-H11=109.32              
C3-C9-C2=110.49                H4-C9-C2=109.32                H4-C9-C3=109.32                H5-C9-C2=109.93                
H5-C9-C3=109.92                H5-C9-H4=107.82                
 
 selected dihedral angles (degree)
 ---------------------------------
C9-C2-C1-C12= 57.40           C9-C2-C1-H13=178.90           C9-C2-C1-H14=297.05           H15-C2-C1-C12=178.91          
H15-C2-C1-H13=300.40          H15-C2-C1-H14= 58.55          H16-C2-C1-C12=297.06          H16-C2-C1-H13= 58.56          
H16-C2-C1-H14=176.71          H10-C6-C3-C9=181.14           H10-C6-C3-H17=301.49          H10-C6-C3-H18= 59.64          
H11-C6-C3-C9= 62.99           H11-C6-C3-H17=183.34          H11-C6-C3-H18=301.49          C12-C6-C3-C9=302.63           
C12-C6-C3-H17= 62.97          C12-C6-C3-H18=181.13          C3-C9-C2-C1=302.59            C3-C9-C2-H15=181.09           
C3-C9-C2-H16= 62.93           H4-C9-C2-C1= 62.94            H4-C9-C2-H15=301.44           H4-C9-C2-H16=183.28           
H5-C9-C2-C1=181.10            H5-C9-C2-H15= 59.60           H5-C9-C2-H16=301.44           C2-C9-C3-C6= 57.40            
C2-C9-C3-H17=297.05           C2-C9-C3-H18=178.89           H4-C9-C3-C6=297.05            H4-C9-C3-H17=176.70           
H4-C9-C3-H18= 58.55           H5-C9-C3-C6=178.89            H5-C9-C3-H17= 58.55           H5-C9-C3-H18=300.39           
           -------------------------------------------------
          |                Final Singlepoint                |
           -------------------------------------------------

          ...................................................
          :                      SETUP                      :
          :.................................................:
          :  # basis functions                  36          :
          :  # atomic orbitals                  36          :
          :  # shells                           24          :
          :  # electrons                        36          :
          :  max. iterations                   250          :
          :  Hamiltonian                  GFN2-xTB          :
          :  restarted?                      false          :
          :  GBSA solvation                   true          :
          :  PC potential                    false          :
          :  electronic temp.          300.0000000     K    :
          :  accuracy                    1.0000000          :
          :  -> integral cutoff          0.2500000E+02      :
          :  -> integral neglect         0.1000000E-07      :
          :  -> SCF convergence          0.1000000E-05 Eh   :
          :  -> wf. convergence          0.1000000E-03 e    :
          :  Broyden damping             0.4000000          :
          ...................................................

 iter      E             dE          RMSdq      gap      omega  full diag
   1    -19.2726227 -0.192726E+02  0.281E-08   13.65       0.0  T
   2    -19.2726227  0.710543E-14  0.151E-08   13.65  100000.0  T
   3    -19.2726227  0.355271E-14  0.630E-09   13.65  100000.0  T

   *** convergence criteria satisfied after 3 iterations ***

         #    Occupation            Energy/Eh            Energy/eV
      -------------------------------------------------------------
         1        2.0000           -0.6297504             -17.1364
       ...           ...                  ...                  ...
        12        2.0000           -0.4621614             -12.5761
        13        2.0000           -0.4621411             -12.5755
        14        2.0000           -0.4349491             -11.8356
        15        2.0000           -0.4349399             -11.8353
        16        2.0000           -0.4175811             -11.3630
        17        2.0000           -0.4100074             -11.1569
        18        2.0000           -0.4099931             -11.1565 (HOMO)
        19                          0.0917088               2.4955 (LUMO)
        20                          0.1009616               2.7473
        21                          0.1009744               2.7477
        22                          0.1147603               3.1228
        23                          0.1148549               3.1254
       ...                                ...                  ...
        36                          0.3073840               8.3643
      -------------------------------------------------------------
                  HL-Gap            0.5017019 Eh           13.6520 eV
             Fermi-level           -0.1591421 Eh           -4.3305 eV

 SCC (total)                   0 d,  0 h,  0 min,  0.012 sec
 SCC setup                      ...        0 min,  0.001 sec (  9.182%)
 Dispersion                     ...        0 min,  0.000 sec (  1.060%)
 classical contributions        ...        0 min,  0.000 sec (  0.276%)
 integral evaluation            ...        0 min,  0.002 sec ( 16.171%)
 iterations                     ...        0 min,  0.005 sec ( 39.395%)
 molecular gradient             ...        0 min,  0.004 sec ( 29.379%)
 printout                       ...        0 min,  0.001 sec (  4.130%)

         :::::::::::::::::::::::::::::::::::::::::::::::::::::
         ::                     SUMMARY                     ::
         :::::::::::::::::::::::::::::::::::::::::::::::::::::
         :: total energy             -18.992489233392 Eh    ::
         :: total w/o Gsasa/hb       -18.986735304565 Eh    ::
         :: gradient norm              0.000127918371 Eh/a0 ::
         :: HOMO-LUMO gap             13.652004367872 eV    ::
         ::.................................................::
         :: SCC energy               -19.272622722780 Eh    ::
         :: -> isotropic ES            0.002663309317 Eh    ::
         :: -> anisotropic ES          0.005185386312 Eh    ::
         :: -> anisotropic XC          0.010986030375 Eh    ::
         :: -> dispersion             -0.011266815720 Eh    ::
         :: -> Gsolv                  -0.005777108412 Eh    ::
         ::    -> Gborn               -0.000023179584 Eh    ::
         ::    -> Gsasa               -0.010277808699 Eh    ::
         ::    -> Ghb                  0.000000000000 Eh    ::
         ::    -> Gshift               0.004523879872 Eh    ::
         :: repulsion energy           0.280105189675 Eh    ::
         :: add. restraining           0.000000000000 Eh    ::
         :: total charge              -0.000000000000 e     ::
         :::::::::::::::::::::::::::::::::::::::::::::::::::::

           ------------------------------------------------- 
          |                Numerical Hessian                |
           ------------------------------------------------- 
step length          :   0.00500
SCC accuracy         :   0.30000
Hessian scale factor :   1.00000
frozen atoms in %    :   0.00000    0
RMS gradient         :   0.00013
estimated CPU  time      0.03 min
estimated wall time      0.01 min

writing file <hessian>.

 projected vibrational frequencies (cm⁻¹)
eigval :       -0.00    -0.00    -0.00     0.00     0.00     0.00
eigval :      231.50   232.22   374.73   418.64   418.91   539.41
eigval :      822.53   823.15   868.00   931.30   931.85   936.60
eigval :      937.21  1012.30  1062.58  1094.63  1095.68  1124.49
eigval :     1159.26  1178.10  1247.56  1249.73  1250.32  1250.92
eigval :     1331.37  1345.95  1347.70  1349.31  1358.98  1359.46
eigval :     1481.72  1482.34  1490.55  1490.76  1491.55  1507.32
eigval :     2953.34  2953.81  2954.11  2959.26  2960.44  2963.52
eigval :     2971.25  2971.74  2975.54  2976.32  2976.45  2981.86
           -------------------------------------------------
          |                Property Printout                |
           -------------------------------------------------

    * Orbital Energies and Occupations

         #    Occupation            Energy/Eh            Energy/eV
      -------------------------------------------------------------
         1        2.0000           -0.6297504             -17.1364
       ...           ...                  ...                  ...
         6        2.0000           -0.5461135             -14.8605
         7        2.0000           -0.5195500             -14.1377
         8        2.0000           -0.4958376             -13.4924
         9        2.0000           -0.4958280             -13.4922
        10        2.0000           -0.4918112             -13.3829
        11        2.0000           -0.4665629             -12.6958
        12        2.0000           -0.4621614             -12.5761
        13        2.0000           -0.4621411             -12.5755
        14        2.0000           -0.4349491             -11.8356
        15        2.0000           -0.4349399             -11.8353
        16        2.0000           -0.4175811             -11.3630
        17        2.0000           -0.4100074             -11.1569
        18        2.0000           -0.4099931             -11.1565 (HOMO)
        19                          0.0917088               2.4955 (LUMO)
        20                          0.1009616               2.7473
        21                          0.1009744               2.7477
        22                          0.1147603               3.1228
        23                          0.1148549               3.1254
        24                          0.1184171               3.2223
        25                          0.1402950               3.8176
        26                          0.1859314               5.0595
        27                          0.1859484               5.0599
        28                          0.1921316               5.2282
        29                          0.1994837               5.4282
       ...                                ...                  ...
        36                          0.3073840               8.3643
      -------------------------------------------------------------
                  HL-Gap            0.5017019 Eh           13.6520 eV
             Fermi-level           -0.1591421 Eh           -4.3305 eV

     #   Z          covCN         q      C6AA      α(0)
     1   6 C        3.805    -0.055    21.550     6.609
     2   6 C        3.805    -0.055    21.550     6.609
     3   6 C        3.805    -0.055    21.550     6.609
     4   1 H        0.924     0.030     2.589     2.516
     5   1 H        0.924     0.025     2.663     2.552
     6   6 C        3.805    -0.055    21.550     6.609
     7   1 H        0.924     0.025     2.663     2.552
     8   1 H        0.924     0.030     2.589     2.516
     9   6 C        3.805    -0.055    21.550     6.609
    10   1 H        0.924     0.025     2.663     2.552
    11   1 H        0.924     0.030     2.589     2.516
    12   6 C        3.805    -0.055    21.550     6.609
    13   1 H        0.924     0.025     2.663     2.552
    14   1 H        0.924     0.030     2.589     2.516
    15   1 H        0.924     0.025     2.663     2.552
    16   1 H        0.924     0.030     2.589     2.516
    17   1 H        0.924     0.030     2.589     2.516
    18   1 H        0.924     0.025     2.663     2.552

 Mol. C6AA /au·bohr⁶  :       2230.247006
 Mol. C8AA /au·bohr⁸  :      47133.489007
 Mol. α(0) /au        :         70.061125


Wiberg/Mayer (AO) data.
largest (>0.10) Wiberg bond orders for each atom

 ---------------------------------------------------------------------------
     #   Z sym  total        # sym  WBO       # sym  WBO       # sym  WBO
 ---------------------------------------------------------------------------
     1   6 C    3.998 --     2 C    1.009    12 C    1.009    13 H    0.978
                            14 H    0.978
     2   6 C    3.998 --     9 C    1.009     1 C    1.009    15 H    0.978
                            16 H    0.978
     3   6 C    3.998 --     9 C    1.009     6 C    1.009    18 H    0.978
                            17 H    0.978
     4   1 H    0.999 --     9 C    0.978
     5   1 H    0.999 --     9 C    0.978
     6   6 C    3.998 --    12 C    1.009     3 C    1.009    10 H    0.978
                            11 H    0.978
     7   1 H    0.999 --    12 C    0.978
     8   1 H    0.999 --    12 C    0.978
     9   6 C    3.998 --     2 C    1.009     3 C    1.009     5 H    0.978
                             4 H    0.978
    10   1 H    0.999 --     6 C    0.978
    11   1 H    0.999 --     6 C    0.978
    12   6 C    3.998 --     6 C    1.009     1 C    1.009     7 H    0.978
                             8 H    0.978
    13   1 H    0.999 --     1 C    0.978
    14   1 H    0.999 --     1 C    0.978
    15   1 H    0.999 --     2 C    0.978
    16   1 H    0.999 --     2 C    0.978
    17   1 H    0.999 --     3 C    0.978
    18   1 H    0.999 --     3 C    0.978
 ---------------------------------------------------------------------------

Topologies differ in total number of bonds
Writing topology from bond orders to xtbtopo.mol

molecular dipole:
                 x           y           z       tot (Debye)
 q only:        0.000      -0.000      -0.000
   full:        0.000       0.000      -0.000       0.000
molecular quadrupole (traceless):
                xx          xy          yy          xz          yz          zz
 q only:        0.013      -0.000       0.012       0.000       0.000      -0.025
  q+dip:       -0.778      -0.000      -0.780      -0.000      -0.000       1.558
   full:       -0.400      -0.000      -0.401      -0.000      -0.000       0.801

           -------------------------------------------------
          |                Geometry Summary                 |
           -------------------------------------------------

      molecular mass/u    :       84.1597044
   center of mass at/Å    :        0.0000000       0.0000000       0.0000000
  moments of inertia/u·Å² :        0.1158111E+03   0.1158323E+03   0.2015576E+03
rotational constants/cm⁻¹ :        0.1455615E+00   0.1455348E+00   0.8363681E-01

 * 18 selected distances

     #   Z          #   Z                                           value/Å
     1   6 C        2   6 C                                       1.5264523
     3   6 C        6   6 C                                       1.5264631 (max)
     2   6 C        9   6 C                                       1.5264006
     3   6 C        9   6 C                                       1.5264067
     4   1 H        9   6 C                                       1.0929365
     5   1 H        9   6 C                                       1.0926767
     6   6 C       10   1 H                                       1.0926884
     6   6 C       11   1 H                                       1.0929735
     1   6 C       12   6 C                                       1.5264549
     6   6 C       12   6 C                                       1.5264210
     7   1 H       12   6 C                                       1.0926209 (min)
     8   1 H       12   6 C                                       1.0930245
     1   6 C       13   1 H                                       1.0926446
     1   6 C       14   1 H                                       1.0930014
     2   6 C       15   1 H                                       1.0926685
     2   6 C       16   1 H                                       1.0930015
     3   6 C       17   1 H                                       1.0930033
     3   6 C       18   1 H                                       1.0926532

 * 2 distinct bonds (by element types)

   Z      Z             #   av. dist./Å        max./Å        min./Å
   1 H    6 C          12     1.0928244     1.0930245     1.0926209
   6 C    6 C           6     1.5264331     1.5264631     1.5264006

           -------------------------------------------------
          |               Frequency Printout                |
           -------------------------------------------------
 projected vibrational frequencies (cm⁻¹)
eigval :       -0.00    -0.00    -0.00     0.00     0.00     0.00
eigval :      231.50   232.22   374.73   418.64   418.91   539.41
eigval :      822.53   823.15   868.00   931.30   931.85   936.60
eigval :      937.21  1012.30  1062.58  1094.63  1095.68  1124.49
eigval :     1159.26  1178.10  1247.56  1249.73  1250.32  1250.92
eigval :     1331.37  1345.95  1347.70  1349.31  1358.98  1359.46
eigval :     1481.72  1482.34  1490.55  1490.76  1491.55  1507.32
eigval :     2953.34  2953.81  2954.11  2959.26  2960.44  2963.52
eigval :     2971.25  2971.74  2975.54  2976.32  2976.45  2981.86
 reduced masses (amu)
   1:  9.24   2:  9.43   3: 10.25   4: 10.11   5:  9.54   6:  9.14   7:  6.25   8:  6.25
   9:  5.46  10:  9.16  11:  9.16  12:  4.40  13:  4.41  14:  4.42  15:  9.45  16:  4.59
  17:  4.83  18:  6.42  19:  6.74  20:  7.87  21:  1.02  22:  5.90  23:  5.98  24:  5.39
  25:  3.79  26:  7.73  27:  3.29  28:  3.19  29:  3.89  30:  3.88  31:  3.75  32:  4.71
  33:  4.70  34:  4.85  35:  5.34  36:  5.36  37:  1.88  38:  1.88  39:  2.07  40:  2.04
  41:  1.89  42:  2.04  43:  1.94  44:  1.93  45:  1.87  46:  1.98  47:  2.00  48:  1.75
  49:  1.52  50:  1.51  51:  1.50  52:  1.51  53:  1.75  54:  1.52
 IR intensities (km·mol⁻¹)
   1:  0.00   2:  0.00   3:  0.00   4:  0.00   5:  0.00   6:  0.00   7:  0.11   8:  0.11
   9:  0.00  10:  0.00  11:  0.00  12:  4.14  13:  0.00  14:  0.00  15:  0.00  16:  6.31
  17:  6.15  18:  0.26  19:  0.10  20:  4.54  21:  0.00  22:  0.00  23:  0.00  24:  0.00
  25:  0.00  26:  0.00  27:  0.00  28:  0.00  29:  1.89  30:  1.97  31:  0.00  32: 10.76
  33: 10.71  34:  0.02  35:  0.00  36:  0.00  37:  0.00  38:  0.00  39:  0.07  40:  0.09
  41:  0.17  42:  0.00  43: 44.32  44: 39.89  45:  4.51  46:  0.02  47:  0.07  48: 45.73
  49:  0.04  50:  0.19  51:216.01  52:221.81  53:389.05  54:  0.17
 Raman intensities (amu)
   1:  0.00   2:  0.00   3:  0.00   4:  0.00   5:  0.00   6:  0.00   7:  0.00   8:  0.00
   9:  0.00  10:  0.00  11:  0.00  12:  0.00  13:  0.00  14:  0.00  15:  0.00  16:  0.00
  17:  0.00  18:  0.00  19:  0.00  20:  0.00  21:  0.00  22:  0.00  23:  0.00  24:  0.00
  25:  0.00  26:  0.00  27:  0.00  28:  0.00  29:  0.00  30:  0.00  31:  0.00  32:  0.00
  33:  0.00  34:  0.00  35:  0.00  36:  0.00  37:  0.00  38:  0.00  39:  0.00  40:  0.00
  41:  0.00  42:  0.00  43:  0.00  44:  0.00  45:  0.00  46:  0.00  47:  0.00  48:  0.00
  49:  0.00  50:  0.00  51:  0.00  52:  0.00  53:  0.00  54:  0.00
 output can be read by thermo (or use thermo option).
 writing <g98.out> molden fake output.
 recommended (thermochemical) frequency scaling factor: 1.0
           -------------------------------------------------
          |             Thermodynamic Functions             |
           -------------------------------------------------

Molecule has the following symmetry elements: (i) (C3) 3*(C2) (S6) 3*(sigma) 
It seems to be the D3d point group
d3d symmetry found (for desy threshold:  0.10E+00) used in thermo

          ...................................................
          :                      SETUP                      :
          :.................................................:
          :  # frequencies                          48      :
          :  # imaginary freq.                       0      :
          :  linear?                             false      :
          :  only rotor calc.                    false      :
          :  symmetry                              d3d      :
          :  rotational number                       6      :
          :  scaling factor                  1.0000000      :
          :  rotor cutoff                   50.0000000 cm⁻¹ :
          :  imag. cutoff                  -20.0000000 cm⁻¹ :
          :.................................................:

    mode    ω/cm⁻¹     T·S(HO)/kcal·mol⁻¹    T·S(FR)/kcal·mol⁻¹   T·S(vib)
   ------------------------------------------------------------------------
       1    231.50    -0.55672 ( 99.78%)    -0.60239 (  0.22%)    -0.55682
       2    232.22    -0.55507 ( 99.79%)    -0.60147 (  0.21%)    -0.55517
   ------------------------------------------------------------------------

   temp. (K)  partition function   enthalpy   heat capacity  entropy
                                   cal/mol     cal/K/mol   cal/K/mol   J/K/mol
 298.15  VIB   4.43                 1788.613     16.603      8.956
         ROT  0.209E+05              888.752      2.981     22.753
         INT  0.926E+05             2677.365     19.583     31.708
         TR   0.747E+27             1481.254      4.968     39.186
         TOT                        4158.6193    24.5516    70.8946   296.6228

       T/K    H(0)-H(T)+PV         H(T)/Eh          T*S/Eh         G(T)/Eh
   ------------------------------------------------------------------------
    298.15    0.662718E-02    0.174816E+00    0.336843E-01    0.141132E+00
   ------------------------------------------------------------------------

         :::::::::::::::::::::::::::::::::::::::::::::::::::::
         ::                  THERMODYNAMIC                  ::
         :::::::::::::::::::::::::::::::::::::::::::::::::::::
         :: total free energy         -18.851357705159 Eh   ::
         ::.................................................::
         :: total energy              -18.992489235467 Eh   ::
         :: zero point energy           0.168188638209 Eh   ::
         :: G(RRHO) w/o ZPVE           -0.027057107900 Eh   ::
         :: G(RRHO) contrib.            0.141131530309 Eh   ::
         :::::::::::::::::::::::::::::::::::::::::::::::::::::

optimized geometry written to: xtbopt.xyz


           -------------------------------------------------
          | TOTAL ENERGY              -18.992489235467 Eh   |
          | TOTAL ENTHALPY            -18.817673415567 Eh   |
          | TOTAL FREE ENERGY         -18.851357705159 Eh   |
          | GRADIENT NORM               0.000127918818 Eh/α |
          | HOMO-LUMO GAP              13.652004367745 eV   |
           -------------------------------------------------

------------------------------------------------------------------------
 * finished run on 2021/11/09 at 14:30:42.802     
------------------------------------------------------------------------
 total:
 * wall-time:     0 d,  0 h,  0 min,  0.551 sec
 *  cpu-time:     0 d,  0 h,  0 min,  1.064 sec
 * ratio c/w:     1.932 speedup
 SCF:
 * wall-time:     0 d,  0 h,  0 min,  0.012 sec
 *  cpu-time:     0 d,  0 h,  0 min,  0.023 sec
 * ratio c/w:     1.949 speedup
 ANC optimizer:
 * wall-time:     0 d,  0 h,  0 min,  0.042 sec
 *  cpu-time:     0 d,  0 h,  0 min,  0.079 sec
 * ratio c/w:     1.880 speedup
 numerical hessian:
 * wall-time:     0 d,  0 h,  0 min,  0.449 sec
 *  cpu-time:     0 d,  0 h,  0 min,  0.891 sec
 * ratio c/w:     1.984 speedup

