      -----------------------------------------------------------      
     |                   =====================                   |     
     |                           x T B                           |     
     |                   =====================                   |     
     |                         S. Grimme                         |     
     |          Mulliken Center for Theoretical Chemistry        |     
     |                    University of Bonn                     |     
      -----------------------------------------------------------      

   * xtb version 6.3.2 (30e43eb) compiled by 'schneider@apollo14' on 2020-08-08

   xtb is free software: you can redistribute it and/or modify it under
   the terms of the GNU Lesser General Public License as published by
   the Free Software Foundation, either version 3 of the License, or
   (at your option) any later version.
   
   xtb is distributed in the hope that it will be useful,
   but WITHOUT ANY WARRANTY; without even the implied warranty of
   MERCHANTABILITY or FITNESS FOR A PARTICULAR PURPOSE.  See the
   GNU Lesser General Public License for more details.
   
   Cite this work as:
   * S. Grimme, C. Bannwarth, P. Shushkov, J. Chem. Theory Comput., 2017,
     13, 1989-2009. DOI: 10.1021/acs.jctc.7b00118
   * C. Bannwarth, S. Ehlert and S. Grimme., J. Chem. Theory Comput., 2019,
     15, 1652-1671. DOI: 10.1021/acs.jctc.8b01176
   * P. Pracht, E. Caldeweyher, S. Ehlert, S. Grimme, ChemRxiv, 2019, preprint.
     DOI: 10.26434/chemrxiv.8326202.v1
   
   for GFN-FF:
   * S. Spicher and S. Grimme, Angew. Chem. Int. Ed., 2020,
     DOI: 10.1002/anie.202004239
   
   for DFT-D4:
   * E. Caldeweyher, C. Bannwarth and S. Grimme, J. Chem. Phys., 2017,
     147, 034112. DOI: 10.1063/1.4993215
   * E. Caldeweyher, S. Ehlert, A. Hansen, H. Neugebauer, S. Spicher,
     C. Bannwarth and S. Grimme, J. Chem. Phys., 2019, 150, 154122.
     DOI: 10.1063/1.5090222
   
   for sTDA-xTB:
   * S. Grimme and C. Bannwarth, J. Chem. Phys., 2016, 145, 054103.
     DOI: 10.1063/1.4959605
   
   in the mass-spec context:
   * V. Asgeirsson, C. Bauer and S. Grimme, Chem. Sci., 2017, 8, 4879.
     DOI: 10.1039/c7sc00601b
   * J. Koopman and S. Grimme, ACS Omega 2019, 4, 12, 15120-15133.
     DOI: 10.1021/acsomega.9b02011
   
   for metadynamics refer to:
   * S. Grimme, J. Chem. Theory Comput., 2019, 155, 2847-2862
     DOI: 10.1021/acs.jctc.9b00143
   
   with help from (in alphabetical order)
   C. Bannwarth, F. Bohle, G. Brandenburg, E. Caldeweyher, M. Checinski,
   S. Dohm, S. Ehlert, S. Ehrlich, F. März, H. Neugebauer, J. Pisarek,
   P. Pracht, P. Shushkov, and S. Spicher.
   
 * started run on 2021/11/10 at 01:57:24.615     

           -------------------------------------------------
          |                Calculation Setup                |
           -------------------------------------------------

          program call               : xtb final.xyz --chrg -1 --gbsa methanol --ohess
          coordinate file            : final.xyz
          omp threads                :                     6
          number of atoms            :                    23
          number of electrons        :                    56
          charge                     :                    -1
          spin                       :                   0.0
          first test random number   :      0.77797084957022

   ID    Z sym.   atoms
    1    6 C      1-3, 5, 8, 11, 19
    2    1 H      4, 6, 7, 9, 10, 12-17, 21-23
    3   35 Br     18
    4    8 O      20

molecular fragmentation (1/2 indicates fragments):
11111111111111111211111
# atoms in fragment 1/2:    22     1
 fragment masses (1/2) :      114.19       79.90
CMA distance (Bohr)    :  11.022
constraining FC (au)   :  0.0500

           -------------------------------------------------
          |                 G F N 2 - x T B                 |
           -------------------------------------------------

        Reference                      10.1021/acs.jctc.8b01176
      * Hamiltonian:
        H0-scaling (s, p, d)           1.850000    2.230000    2.230000
        zeta-weighting                 0.500000
      * Dispersion:
        s8                             2.700000
        a1                             0.520000
        a2                             5.000000
        s9                             5.000000
      * Repulsion:
        kExp                           1.500000    1.000000
        rExp                           1.000000
      * Coulomb:
        alpha                          2.000000
        third order                    shell-resolved
        anisotropic                    true
        a3                             3.000000
        a5                             4.000000
        cn-shift                       1.200000
        cn-exp                         4.000000
        max-rad                        5.000000

      * Solvation model:               GBSA
        Solvent                        methanol
        Parameter file                 internal GFN2-xTB/GBSA
        Dielectric constant                3.2700E+01
        Reference state                gsolv [1 M gas/solution]
        Free energy shift                  3.3569E-03 Eh       2.1065E+00 kcal/mol
        Temperature                        2.9815E+02 K
        Density                            7.9200E-01 kg/L
        Solvent mass                       3.2040E+01 g/mol
        Interaction kernel             Still
        Born radius scaling (c1)           1.6087E+00
        Born radii integrator          GBOBC
        Born offset                        5.6550E-04 a0       1.0686E-03 AA
        H-bond correction              true
        Ion screening                  false
        Surface tension                    1.0000E-05 Eh       1.5569E+01 dyn/cm
        Grid points                               230 per atom
q/qsh data taken from xtbrestart
CAMM data taken from xtbrestart

          ...................................................
          :                      SETUP                      :
          :.................................................:
          :  # basis functions                  56          :
          :  # atomic orbitals                  55          :
          :  # shells                           33          :
          :  # electrons                        56          :
          :  max. iterations                   250          :
          :  Hamiltonian                  GFN2-xTB          :
          :  restarted?                       true          :
          :  GBSA solvation                   true          :
          :  PC potential                    false          :
          :  electronic temp.          300.0000000     K    :
          :  accuracy                    1.0000000          :
          :  -> integral cutoff          0.2500000E+02      :
          :  -> integral neglect         0.1000000E-07      :
          :  -> SCF convergence          0.1000000E-05 Eh   :
          :  -> wf. convergence          0.1000000E-03 e    :
          :  Broyden damping             0.4000000          :
          ...................................................

 iter      E             dE          RMSdq      gap      omega  full diag
   1    -30.9806544 -0.309807E+02  0.222E-07    9.45       0.0  T
   2    -30.9806544  0.817124E-13  0.147E-07    9.45  100000.0  T
   3    -30.9806544 -0.710543E-14  0.573E-08    9.45  100000.0  T

   *** convergence criteria satisfied after 3 iterations ***

         #    Occupation            Energy/Eh            Energy/eV
      -------------------------------------------------------------
         1        2.0000           -0.7400434             -20.1376
       ...           ...                  ...                  ...
        22        2.0000           -0.4238675             -11.5340
        23        2.0000           -0.4229084             -11.5079
        24        2.0000           -0.4140803             -11.2677
        25        2.0000           -0.3876521             -10.5485
        26        2.0000           -0.3332491              -9.0682
        27        2.0000           -0.3331987              -9.0668
        28        2.0000           -0.3330834              -9.0637 (HOMO)
        29                          0.0142284               0.3872 (LUMO)
        30                          0.0742108               2.0194
        31                          0.0960453               2.6135
        32                          0.0970675               2.6413
        33                          0.1038102               2.8248
       ...                                ...                  ...
        55                          0.3105675               8.4510
      -------------------------------------------------------------
                  HL-Gap            0.3473118 Eh            9.4508 eV
             Fermi-level           -0.1594275 Eh           -4.3382 eV

 SCC (total)                   0 d,  0 h,  0 min,  0.024 sec
 SCC setup                      ...        0 min,  0.002 sec (  8.125%)
 Dispersion                     ...        0 min,  0.001 sec (  4.975%)
 classical contributions        ...        0 min,  0.001 sec (  3.336%)
 integral evaluation            ...        0 min,  0.007 sec ( 27.348%)
 iterations                     ...        0 min,  0.005 sec ( 19.243%)
 molecular gradient             ...        0 min,  0.008 sec ( 34.300%)
 printout                       ...        0 min,  0.001 sec (  2.603%)

         :::::::::::::::::::::::::::::::::::::::::::::::::::::
         ::                     SUMMARY                     ::
         :::::::::::::::::::::::::::::::::::::::::::::::::::::
         :: total energy             -30.654869036426 Eh    ::
         :: total w/o Gsasa/hb       -30.636871743023 Eh    ::
         :: gradient norm              0.000999584632 Eh/a0 ::
         :: HOMO-LUMO gap              9.450834499621 eV    ::
         ::.................................................::
         :: SCC energy               -30.980654372024 Eh    ::
         :: -> isotropic ES            0.204138499358 Eh    ::
         :: -> anisotropic ES          0.003169138228 Eh    ::
         :: -> anisotropic XC          0.009870851308 Eh    ::
         :: -> dispersion             -0.016045493138 Eh    ::
         :: -> Gsolv                  -0.116403501089 Eh    ::
         ::    -> Gborn               -0.098406207685 Eh    ::
         ::    -> Gsasa               -0.014208389412 Eh    ::
         ::    -> Ghb                 -0.007145833514 Eh    ::
         ::    -> Gshift               0.003356929523 Eh    ::
         :: repulsion energy           0.325662496488 Eh    ::
         :: add. restraining           0.000000000000 Eh    ::
         :: total charge              -1.000000000000 e     ::
         :::::::::::::::::::::::::::::::::::::::::::::::::::::

      ----------------------------------------------------------- 
     |                   =====================                   |
     |                        A N C O P T                        |
     |                   =====================                   |
     |               Approximate Normal Coordinate               |
     |                Rational Function Optimizer                |
      ----------------------------------------------------------- 

          ...................................................
          :                      SETUP                      :
          :.................................................:
          :   optimization level            normal          :
          :   max. optcycles                   200          :
          :   ANC micro-cycles                  20          :
          :   degrees of freedom                63          :
          :.................................................:
          :   RF solver                   davidson          :
          :   write xtbopt.log                true          :
          :   linear?                        false          :
          :   energy convergence         0.5000000E-05 Eh   :
          :   grad. convergence          0.1000000E-02 Eh/α :
          :   maximium RF displ.         1.0000000          :
          :   Hlow (freq-cutoff)         0.1000000E-01      :
          :   Hmax (freq-cutoff)         5.0000000          :
          :   S6 in model hess.         20.0000000          :
          ...................................................

generating ANC from model Hessian ...
Using Lindh-Hessian (1995)
 Shifting diagonal of input Hessian by    9.9865377411844803E-003
 Lowest  eigenvalues of input Hessian
    0.000000    0.000000    0.000000    0.000000    0.000000    0.000000
    0.010000    0.010108    0.010281    0.012571    0.013514    0.015816
    0.019053    0.020294    0.026699    0.030048    0.033111    0.033991
 Highest eigenvalues
    1.217277    1.226146    1.250778    1.278705    1.327991    1.557398


........................................................................
.............................. CYCLE    1 ..............................
........................................................................
   1    -30.9806544 -0.309807E+02  0.217E-08    9.45       0.0  T
   2    -30.9806544  0.177636E-13  0.157E-08    9.45  100000.0  T
   3    -30.9806544  0.390799E-13  0.509E-09    9.45  100000.0  T
     SCC iter.                  ...        0 min,  0.004 sec
     gradient                   ...        0 min,  0.006 sec
 * total energy  :   -30.6548690 Eh     change       -0.1065814E-13 Eh
   gradient norm :     0.0009996 Eh/α   predicted     0.0000000E+00 (-100.00%)
   displ. norm   :     0.0020128 α      lambda       -0.1161067E-05
   maximum displ.:     0.0013422 α      in ANC's #1, #59, #53, ...

   *** GEOMETRY OPTIMIZATION CONVERGED AFTER 1 ITERATIONS ***

------------------------------------------------------------------------
 total energy gain   :        -0.0000000 Eh       -0.0000 kcal/mol
 total RMSD          :         0.0000000 a0        0.0000 Å
 total power (kW/mol):        -0.0000000 (step)   -0.0000 (real)
------------------------------------------------------------------------

 ANCopt (total)                0 d,  0 h,  0 min,  0.033 sec
 optimizer setup                ...        0 min,  0.000 sec (  0.818%)
 model hessian                  ...        0 min,  0.016 sec ( 48.317%)
 ANC generation                 ...        0 min,  0.001 sec (  2.767%)
 coordinate transformation      ...        0 min,  0.000 sec (  0.023%)
 single point calculation       ...        0 min,  0.015 sec ( 45.546%)
 optimization log               ...        0 min,  0.000 sec (  0.384%)
 hessian update                 ...        0 min,  0.000 sec (  0.004%)
 rational function              ...        0 min,  0.000 sec (  1.021%)

================
 final structure:
================
23
 xtb: 6.3.2 (30e43eb)
C         1.71535771118491   -1.44701424863059    0.04330840840346
C         2.43980154682681   -0.12748305647263    0.29500225945587
C         1.68662090181792    0.70603542522153   -1.94796994628849
H        -0.07521680741010   -0.50796618374475   -1.74945320238344
C         1.74976404055383    1.00978821896349   -0.45344158519864
H         2.70323972880574    0.62112450575948   -2.33919273645959
H         1.17462860625475    1.51066752474957   -2.47968452089364
C         1.65661448086348   -1.74715101004054   -1.45198011278713
H         2.44745676790370    0.08900509602223    1.36488661059372
H         3.47516580739040   -0.21071711156085   -0.04407107923315
C         0.93208685920274   -0.60850851062790   -2.17666865623584
H         1.12616589463902   -2.68459302224044   -1.63145012569414
H         2.67388312136859   -1.84112230898591   -1.83790110923626
H         2.28596112723877    1.94729911162925   -0.29020493205221
H         0.73446090855662    1.13363637915148   -0.06579608362900
H         2.22495418223927   -2.26105988696485    0.56379037737183
H         0.69861146883587   -1.38217133432431    0.44005140762332
Br       -3.22688776781908    0.10357218455060    1.49769347573020
C         1.76469924021796   -1.13824396554443   -4.38697873223860
O         0.65747472546996   -0.87526097848469   -3.54793976854573
H         2.48493478653162   -0.31602394310709   -4.38159201646387
H         2.26813865488357   -2.06964132690472   -4.11102342223047
H         1.34543493218717   -1.23963336370367   -5.38651784789314

 Bond Distances (Angstroems)
 ---------------------------
C1-C2=1.5262         C1-C8=1.5262         C1-H16=1.0924        C1-H17=1.0933        C2-C1=1.5262         C2-C5=1.5263         
C2-H9=1.0916         C2-H10=1.0926        C3-C5=1.5264         C3-H6=1.0926         C3-H7=1.0919         C3-C11=1.5329        
H4-C11=1.0988        C5-C2=1.5263         C5-C3=1.5264         C5-H14=1.0923        C5-H15=1.0938        H6-C3=1.0926         
H7-C3=1.0919         C8-C1=1.5262         C8-C11=1.5319        C8-H12=1.0920        C8-H13=1.0921        H9-C2=1.0916         
H10-C2=1.0926        C11-C3=1.5329        C11-H4=1.0988        C11-C8=1.5319        C11-O20=1.4237       H12-C8=1.0920        
H13-C8=1.0921        H14-C5=1.0923        H15-C5=1.0938        H16-C1=1.0924        H17-C1=1.0933        C19-O20=1.4139       
C19-H21=1.0931       C19-H22=1.0941       C19-H23=1.0886       O20-C11=1.4237       O20-C19=1.4139       H21-C19=1.0931       
H22-C19=1.0941       H23-C19=1.0886       
 C  H  Rav=1.0928 sigma=0.0021  Rmin=1.0886  Rmax=1.0988    14
 C  C  Rav=1.5283 sigma=0.0029  Rmin=1.5262  Rmax=1.5329     6
 O  C  Rav=1.4188 sigma=0.0049  Rmin=1.4139  Rmax=1.4237     2

 selected bond angles (degree)
 --------------------
C8-C1-C2=110.48                H16-C1-C2=110.14               H16-C1-C8=109.77               H17-C1-C2=109.29               
H17-C1-C8=109.35               H17-C1-H16=107.77              C5-C2-C1=110.41                H9-C2-C1=109.66                
H9-C2-C5=109.63                H10-C2-C1=109.44               H10-C2-C5=109.45               H10-C2-H9=108.22               
H6-C3-C5=109.12                H7-C3-C5=110.46                H7-C3-H6=108.61                C11-C3-C5=109.70               
C11-C3-H6=109.75               C11-C3-H7=109.18               C3-C5-C2=110.52                H14-C5-C2=110.14               
H14-C5-C3=109.72               H15-C5-C2=109.28               H15-C5-C3=109.34               H15-C5-H14=107.79              
C11-C8-C1=109.60               H12-C8-C1=110.40               H12-C8-C11=109.31              H13-C8-C1=109.10               
H13-C8-C11=109.72              H13-C8-H12=108.70              

 selected dihedral angles (degree)
 ---------------------------------
C5-C2-C1-C8= 57.38            C5-C2-C1-H16=178.81           C5-C2-C1-H17=297.02           H9-C2-C1-C8=178.29            
H9-C2-C1-H16=299.72           H9-C2-C1-H17= 57.92           H10-C2-C1-C8=296.85           H10-C2-C1-H16= 58.28          
H10-C2-C1-H17=176.48          C3-C5-C2-C1=302.79            C3-C5-C2-H9=181.87            C3-C5-C2-H10= 63.32           
H14-C5-C2-C1=181.39           H14-C5-C2-H9= 60.47           H14-C5-C2-H10=301.92          H15-C5-C2-C1= 63.16           
H15-C5-C2-H9=302.24           H15-C5-C2-H10=183.69          C2-C5-C3-H6=298.17            C2-C5-C3-H7=178.84            
C2-C5-C3-C11= 58.44           H14-C5-C3-H6= 59.82           H14-C5-C3-H7=300.49           H14-C5-C3-C11=180.09          
H15-C5-C3-H6=177.84           H15-C5-C3-H7= 58.51           H15-C5-C3-C11=298.11          C11-C8-C1-C2=301.23           
C11-C8-C1-H16=179.58          C11-C8-C1-H17= 61.55          H12-C8-C1-C2=180.77           H12-C8-C1-H16= 59.12          
H12-C8-C1-H17=301.09          H13-C8-C1-C2= 61.38           H13-C8-C1-H16=299.73          H13-C8-C1-H17=181.70          

 CMA Distance (Angstroems)
 ---------------------------
R(CMA):  5.8325
           -------------------------------------------------
          |                Final Singlepoint                |
           -------------------------------------------------

          ...................................................
          :                      SETUP                      :
          :.................................................:
          :  # basis functions                  56          :
          :  # atomic orbitals                  55          :
          :  # shells                           33          :
          :  # electrons                        56          :
          :  max. iterations                   250          :
          :  Hamiltonian                  GFN2-xTB          :
          :  restarted?                      false          :
          :  GBSA solvation                   true          :
          :  PC potential                    false          :
          :  electronic temp.          300.0000000     K    :
          :  accuracy                    1.0000000          :
          :  -> integral cutoff          0.2500000E+02      :
          :  -> integral neglect         0.1000000E-07      :
          :  -> SCF convergence          0.1000000E-05 Eh   :
          :  -> wf. convergence          0.1000000E-03 e    :
          :  Broyden damping             0.4000000          :
          ...................................................

 iter      E             dE          RMSdq      gap      omega  full diag
   1    -30.9806544 -0.309807E+02  0.330E-09    9.45       0.0  T
   2    -30.9806544  0.568434E-13  0.246E-09    9.45  100000.0  T
   3    -30.9806544 -0.142109E-13  0.115E-09    9.45  100000.0  T

   *** convergence criteria satisfied after 3 iterations ***

         #    Occupation            Energy/Eh            Energy/eV
      -------------------------------------------------------------
         1        2.0000           -0.7400434             -20.1376
       ...           ...                  ...                  ...
        22        2.0000           -0.4238675             -11.5340
        23        2.0000           -0.4229084             -11.5079
        24        2.0000           -0.4140803             -11.2677
        25        2.0000           -0.3876521             -10.5485
        26        2.0000           -0.3332491              -9.0682
        27        2.0000           -0.3331987              -9.0668
        28        2.0000           -0.3330834              -9.0637 (HOMO)
        29                          0.0142284               0.3872 (LUMO)
        30                          0.0742108               2.0194
        31                          0.0960453               2.6135
        32                          0.0970675               2.6413
        33                          0.1038102               2.8248
       ...                                ...                  ...
        55                          0.3105675               8.4510
      -------------------------------------------------------------
                  HL-Gap            0.3473118 Eh            9.4508 eV
             Fermi-level           -0.1594275 Eh           -4.3382 eV

 SCC (total)                   0 d,  0 h,  0 min,  0.022 sec
 SCC setup                      ...        0 min,  0.001 sec (  4.159%)
 Dispersion                     ...        0 min,  0.000 sec (  0.506%)
 classical contributions        ...        0 min,  0.000 sec (  0.171%)
 integral evaluation            ...        0 min,  0.005 sec ( 21.779%)
 iterations                     ...        0 min,  0.004 sec ( 19.757%)
 molecular gradient             ...        0 min,  0.011 sec ( 51.324%)
 printout                       ...        0 min,  0.000 sec (  2.240%)

         :::::::::::::::::::::::::::::::::::::::::::::::::::::
         ::                     SUMMARY                     ::
         :::::::::::::::::::::::::::::::::::::::::::::::::::::
         :: total energy             -30.654869036427 Eh    ::
         :: total w/o Gsasa/hb       -30.636871743027 Eh    ::
         :: gradient norm              0.000999584346 Eh/a0 ::
         :: HOMO-LUMO gap              9.450834505172 eV    ::
         ::.................................................::
         :: SCC energy               -30.980654372024 Eh    ::
         :: -> isotropic ES            0.204138499323 Eh    ::
         :: -> anisotropic ES          0.003169138338 Eh    ::
         :: -> anisotropic XC          0.009870851312 Eh    ::
         :: -> dispersion             -0.016045493135 Eh    ::
         :: -> Gsolv                  -0.116403500932 Eh    ::
         ::    -> Gborn               -0.098406207532 Eh    ::
         ::    -> Gsasa               -0.014208389412 Eh    ::
         ::    -> Ghb                 -0.007145833510 Eh    ::
         ::    -> Gshift               0.003356929523 Eh    ::
         :: repulsion energy           0.325662496488 Eh    ::
         :: add. restraining           0.000000000000 Eh    ::
         :: total charge              -1.000000000000 e     ::
         :::::::::::::::::::::::::::::::::::::::::::::::::::::

           ------------------------------------------------- 
          |                Numerical Hessian                |
           ------------------------------------------------- 
step length          :   0.00500
SCC accuracy         :   0.30000
Hessian scale factor :   1.00000
frozen atoms in %    :   0.00000    0
RMS gradient         :   0.00100
estimated CPU  time      0.27 min
estimated wall time      0.02 min

writing file <hessian>.

 projected vibrational frequencies (cm-1)
eigval :       -0.00     0.00     0.00     0.00     0.00     0.00
eigval :        9.54    32.02    37.52    66.56   134.77   191.33
eigval :      237.35   288.05   338.03   342.63   394.82   442.35
eigval :      514.61   599.71   823.27   826.16   902.50   912.41
eigval :      932.02   952.26   971.45   996.95  1065.29  1082.41
eigval :     1088.62  1091.29  1122.05  1132.99  1141.53  1182.40
eigval :     1189.98  1235.94  1243.20  1247.09  1298.25  1311.65
eigval :     1334.83  1339.77  1353.76  1355.87  1356.28  1390.99
eigval :     1466.10  1474.85  1479.91  1480.98  1489.80  1490.73
eigval :     1503.19  2898.39  2925.41  2945.13  2953.51  2956.32
eigval :     2961.88  2964.62  2968.53  2971.97  2976.73  2978.02
eigval :     2979.38  2985.06  3015.87
           -------------------------------------------------
          |                Property Printout                |
           -------------------------------------------------

    * Orbital Energies and Occupations

         #    Occupation            Energy/Eh            Energy/eV
      -------------------------------------------------------------
         1        2.0000           -0.7400434             -20.1376
       ...           ...                  ...                  ...
        16        2.0000           -0.4794549             -13.0466
        17        2.0000           -0.4722453             -12.8504
        18        2.0000           -0.4646426             -12.6436
        19        2.0000           -0.4553853             -12.3917
        20        2.0000           -0.4402656             -11.9802
        21        2.0000           -0.4343296             -11.8187
        22        2.0000           -0.4238675             -11.5340
        23        2.0000           -0.4229084             -11.5079
        24        2.0000           -0.4140803             -11.2677
        25        2.0000           -0.3876521             -10.5485
        26        2.0000           -0.3332491              -9.0682
        27        2.0000           -0.3331987              -9.0668
        28        2.0000           -0.3330834              -9.0637 (HOMO)
        29                          0.0142284               0.3872 (LUMO)
        30                          0.0742108               2.0194
        31                          0.0960453               2.6135
        32                          0.0970675               2.6413
        33                          0.1038102               2.8248
        34                          0.1139598               3.1010
        35                          0.1203983               3.2762
        36                          0.1272548               3.4628
        37                          0.1557404               4.2379
        38                          0.1699043               4.6233
        39                          0.1774892               4.8297
       ...                                ...                  ...
        55                          0.3105675               8.4510
      -------------------------------------------------------------
                  HL-Gap            0.3473118 Eh            9.4508 eV
             Fermi-level           -0.1594275 Eh           -4.3382 eV

     #   Z          covCN         q      C6AA      α(0)
     1   6 C        3.806    -0.056    21.583     6.614
     2   6 C        3.805    -0.060    21.658     6.625
     3   6 C        3.805    -0.067    21.781     6.644
     4   1 H        0.923     0.026     2.646     2.544
     5   6 C        3.806    -0.056    21.585     6.614
     6   1 H        0.924     0.043     2.409     2.427
     7   1 H        0.924     0.032     2.555     2.500
     8   6 C        3.805    -0.067    21.781     6.644
     9   1 H        0.924     0.033     2.548     2.496
    10   1 H        0.924     0.045     2.385     2.415
    11   6 C        3.741     0.113    18.802     6.186
    12   1 H        0.924     0.031     2.567     2.506
    13   1 H        0.924     0.045     2.387     2.416
    14   1 H        0.924     0.038     2.472     2.459
    15   1 H        0.924     0.022     2.697     2.568
    16   1 H        0.924     0.038     2.476     2.461
    17   1 H        0.924     0.023     2.695     2.567
    18  35 Br       0.000    -1.000   195.297    22.457
    19   6 C        3.635     0.035    20.364     6.494
    20   8 O        1.698    -0.359    20.050     6.046
    21   1 H        0.924     0.040     2.455     2.450
    22   1 H        0.924     0.039     2.467     2.456
    23   1 H        0.925     0.064     2.153     2.295

 Mol. C6AA /au·bohr⁶  :       5260.279115
 Mol. C8AA /au·bohr⁸  :     144450.663353
 Mol. α(0) /au        :        108.883411


Wiberg/Mayer (AO) data.
largest (>0.10) Wiberg bond orders for each atom

 ---------------------------------------------------------------------------
     #   Z sym  total        # sym  WBO       # sym  WBO       # sym  WBO
 ---------------------------------------------------------------------------
     1   6 C    3.997 --     2 C    1.009     8 C    1.007    17 H    0.978
                            16 H    0.977
     2   6 C    3.998 --     1 C    1.009     5 C    1.009     9 H    0.978
                            10 H    0.977
     3   6 C    3.998 --     5 C    1.007    11 C    0.988     7 H    0.977
                             6 H    0.973
     4   1 H    0.999 --    11 C    0.961
     5   6 C    3.997 --     2 C    1.009     3 C    1.007    15 H    0.978
                            14 H    0.977
     6   1 H    0.998 --     3 C    0.973
     7   1 H    0.999 --     3 C    0.977
     8   6 C    3.998 --     1 C    1.007    11 C    0.989    12 H    0.977
                            13 H    0.974
     9   1 H    0.999 --     2 C    0.978
    10   1 H    0.998 --     2 C    0.977
    11   6 C    3.949 --     8 C    0.989     3 C    0.988    20 O    0.965
                             4 H    0.961
    12   1 H    0.999 --     8 C    0.977
    13   1 H    0.998 --     8 C    0.974
    14   1 H    0.999 --     5 C    0.977
    15   1 H    0.999 --     5 C    0.978
    16   1 H    0.999 --     1 C    0.977
    17   1 H    0.999 --     1 C    0.978
    18  35 Br   0.000 --    19   6 C    3.947 --    20 O    0.986    23 H    0.979    22 H    0.977
                            21 H    0.977
    20   8 O    2.053 --    19 C    0.986    11 C    0.965
    21   1 H    0.998 --    19 C    0.977
    22   1 H    0.998 --    19 C    0.977
    23   1 H    0.996 --    19 C    0.979
 ---------------------------------------------------------------------------

Topologies differ in total number of bonds
Writing topology from bond orders to xtbtopo.mol

molecular dipole:
                 x           y           z       tot (Debye)
 q only:        6.822      -0.181      -2.580
   full:        6.767      -0.174      -2.502      18.344
molecular quadrupole (traceless):
                xx          xy          yy          xz          yz          zz
 q only:      -29.801       0.142      21.358      20.278      -0.714       8.443
  q+dip:      -27.935       0.036      22.195      19.402      -1.449       5.739
   full:      -28.581      -0.002      21.972      19.389      -1.185       6.609

           -------------------------------------------------
          |                Geometry Summary                 |
           -------------------------------------------------

      molecular mass/u    :      194.0892545
   center of mass at/Å    :       -0.4023028      -0.2744252      -0.4135672
  moments of inertia/u·Å² :        0.3688459E+03   0.1788800E+04   0.1953558E+04
rotational constants/cm⁻¹ :        0.4570372E-01   0.9423989E-02   0.8629195E-02

 * 22 selected distances

     #   Z          #   Z                                           value/Å
     1   6 C        2   6 C                                       1.5262147
     2   6 C        5   6 C                                       1.5263374
     3   6 C        5   6 C                                       1.5263905
     3   6 C        6   1 H                                       1.0926019
     3   6 C        7   1 H                                       1.0919200
     1   6 C        8   6 C                                       1.5262440
     2   6 C        9   1 H                                       1.0915944
     2   6 C       10   1 H                                       1.0926471
     3   6 C       11   6 C                                       1.5328570 (max)
     4   1 H       11   6 C                                       1.0987641
     8   6 C       11   6 C                                       1.5318683
     8   6 C       12   1 H                                       1.0919628
     8   6 C       13   1 H                                       1.0920628
     5   6 C       14   1 H                                       1.0922821
     5   6 C       15   1 H                                       1.0938226
     1   6 C       16   1 H                                       1.0923646
     1   6 C       17   1 H                                       1.0933355
    11   6 C       20   8 O                                       1.4237111
    19   6 C       20   8 O                                       1.4138927
    19   6 C       21   1 H                                       1.0930755
    19   6 C       22   1 H                                       1.0941223
    19   6 C       23   1 H                                       1.0886417 (min)

 * 3 distinct bonds (by element types)

   Z      Z             #   av. dist./Å        max./Å        min./Å
   1 H    6 C          14     1.0927998     1.0987641     1.0886417
   6 C    6 C           6     1.5283186     1.5328570     1.5262147
   6 C    8 O           2     1.4188019     1.4237111     1.4138927

           -------------------------------------------------
          |               Frequency Printout                |
           -------------------------------------------------
 projected vibrational frequencies (cm-1)
eigval :       -0.00     0.00     0.00     0.00     0.00     0.00
eigval :        9.54    32.02    37.52    66.56   134.77   191.33
eigval :      237.35   288.05   338.03   342.63   394.82   442.35
eigval :      514.61   599.71   823.27   826.16   902.50   912.41
eigval :      932.02   952.26   971.45   996.95  1065.29  1082.41
eigval :     1088.62  1091.29  1122.05  1132.99  1141.53  1182.40
eigval :     1189.98  1235.94  1243.20  1247.09  1298.25  1311.65
eigval :     1334.83  1339.77  1353.76  1355.87  1356.28  1390.99
eigval :     1466.10  1474.85  1479.91  1480.98  1489.80  1490.73
eigval :     1503.19  2898.39  2925.41  2945.13  2953.51  2956.32
eigval :     2961.88  2964.62  2968.53  2971.97  2976.73  2978.02
eigval :     2979.38  2985.06  3015.87
 reduced masses (amu)
   1: 26.07   2: 53.98   3: 12.25   4: 35.91   5: 43.67   6: 49.20   7: 32.94   8: 22.56
   9: 26.51  10:  6.63  11:  8.47  12:  3.94  13:  6.50  14:  8.77  15:  7.71  16: 11.27
  17:  8.96  18:  9.81  19:  5.77  20: 10.08  21:  7.55  22:  4.51  23:  7.26  24:  6.86
  25:  3.65  26:  8.48  27:  7.52  28:  8.27  29:  1.30  30:  9.51  31:  9.41  32:  6.44
  33:  3.88  34:  5.77  35:  7.25  36:  7.54  37:  4.40  38:  3.61  39:  4.20  40:  3.72
  41:  3.78  42:  3.42  43:  4.33  44:  4.61  45:  4.52  46:  4.95  47:  5.02  48:  2.40
  49:  1.69  50:  1.76  51:  1.93  52:  1.72  53:  1.86  54:  2.00  55:  2.02  56:  1.73
  57:  1.90  58:  1.52  59:  1.90  60:  1.91  61:  1.94  62:  1.98  63:  1.81  64:  1.51
  65:  1.64  66:  1.53  67:  1.54  68:  1.57  69:  1.67
 IR intensities (amu)
   1:  0.42   2:  0.81   3:  0.31   4:  0.50   5:  0.54   6:  0.78   7:  0.56   8:  0.61
   9:  0.73  10:  0.33  11:  0.10  12:  0.17  13:  0.11  14:  0.18  15:  0.21  16:  0.53
  17:  0.19  18:  0.20  19:  0.13  20:  0.46  21:  0.17  22:  0.05  23:  0.02  24:  0.24
  25:  0.07  26:  0.64  27:  0.14  28:  0.41  29:  0.01  30:  1.26  31:  0.87  32:  0.37
  33:  0.33  34:  0.37  35:  0.05  36:  0.40  37:  0.24  38:  0.32  39:  0.21  40:  0.04
  41:  0.19  42:  0.26  43:  0.27  44:  0.11  45:  0.44  46:  0.10  47:  0.26  48:  0.09
  49:  0.03  50:  0.12  51:  0.06  52:  0.07  53:  0.06  54:  0.05  55:  0.04  56:  0.33
  57:  0.35  58:  0.24  59:  0.14  60:  0.19  61:  0.11  62:  0.17  63:  0.41  64:  0.33
  65:  0.55  66:  0.37  67:  0.49  68:  0.29  69:  0.20
 Raman intensities (amu)
   1:  0.00   2:  0.00   3:  0.00   4:  0.00   5:  0.00   6:  0.00   7:  0.00   8:  0.00
   9:  0.00  10:  0.00  11:  0.00  12:  0.00  13:  0.00  14:  0.00  15:  0.00  16:  0.00
  17:  0.00  18:  0.00  19:  0.00  20:  0.00  21:  0.00  22:  0.00  23:  0.00  24:  0.00
  25:  0.00  26:  0.00  27:  0.00  28:  0.00  29:  0.00  30:  0.00  31:  0.00  32:  0.00
  33:  0.00  34:  0.00  35:  0.00  36:  0.00  37:  0.00  38:  0.00  39:  0.00  40:  0.00
  41:  0.00  42:  0.00  43:  0.00  44:  0.00  45:  0.00  46:  0.00  47:  0.00  48:  0.00
  49:  0.00  50:  0.00  51:  0.00  52:  0.00  53:  0.00  54:  0.00  55:  0.00  56:  0.00
  57:  0.00  58:  0.00  59:  0.00  60:  0.00  61:  0.00  62:  0.00  63:  0.00  64:  0.00
  65:  0.00  66:  0.00  67:  0.00  68:  0.00  69:  0.00
 output can be read by thermo (or use thermo option).
 writing <g98.out> molden fake output.
 recommended (thermochemical) frequency scaling factor: 1.0
           -------------------------------------------------
          |             Thermodynamic Functions             |
           -------------------------------------------------

Refinement of some symmetry elements was terminated before convergence was reached.
Some symmetry elements may remain unidentified.
Molecule has no symmetry elements
It seems to be the C1 point group
c1  symmetry found (for desy threshold:  0.10E+00) used in thermo

          ...................................................
          :                      SETUP                      :
          :.................................................:
          :  # frequencies                          63      :
          :  # imaginary freq.                       0      :
          :  linear?                             false      :
          :  only rotor calc.                    false      :
          :  symmetry                               c1      :
          :  rotational number                       1      :
          :  scaling factor                  1.0000000      :
          :  rotor cutoff                   50.0000000 cm⁻¹ :
          :  imag. cutoff                  -20.0000000 cm⁻¹ :
          :.................................................:

    mode    ω/cm⁻¹     T·S(HO)/kcal·mol⁻¹    T·S(FR)/kcal·mol⁻¹   T·S(vib)
   ------------------------------------------------------------------------
       1      9.54    -2.41660 (  0.13%)    -1.54701 ( 99.87%)    -1.54816
       2     32.02    -1.69955 ( 14.39%)    -1.18848 ( 85.61%)    -1.26205
       3     37.52    -1.60573 ( 24.08%)    -1.14148 ( 75.92%)    -1.25329
       4     66.56    -1.26790 ( 75.85%)    -0.97174 ( 24.15%)    -1.19637
       5    134.77    -0.85771 ( 98.14%)    -0.76278 (  1.86%)    -0.85594
       6    191.33    -0.66037 ( 99.54%)    -0.65898 (  0.46%)    -0.66037
       7    237.35    -0.54341 ( 99.80%)    -0.59513 (  0.20%)    -0.54351
       8    288.05    -0.44287 ( 99.91%)    -0.53778 (  0.09%)    -0.44295
   ------------------------------------------------------------------------

   temp. (K)  partition function   enthalpy   heat capacity  entropy
                                   cal/mol     cal/K/mol   cal/K/mol   J/K/mol
 298.15  VIB  0.647E+05             5099.944     31.854     33.313
         ROT  0.274E+07              888.752      2.981     32.441
         INT  0.178E+12             5988.697     34.835     65.754
         TR   0.262E+28             1481.254      4.968     41.676
         TOT                        7469.9507    39.8028   107.4300   449.4870

       T/K    H(0)-H(T)+PV         H(T)/Eh          T*S/Eh         G(T)/Eh
   ------------------------------------------------------------------------
    298.15    0.119041E-01    0.210963E+00    0.510434E-01    0.159920E+00
   ------------------------------------------------------------------------

         :::::::::::::::::::::::::::::::::::::::::::::::::::::
         ::                  THERMODYNAMIC                  ::
         :::::::::::::::::::::::::::::::::::::::::::::::::::::
         :: total free energy         -30.494949192963 Eh   ::
         ::.................................................::
         :: total energy              -30.654869036267 Eh   ::
         :: zero point energy           0.199059164061 Eh   ::
         :: G(RRHO) w/o ZPVE           -0.039139320757 Eh   ::
         :: G(RRHO) contrib.            0.159919843304 Eh   ::
         :::::::::::::::::::::::::::::::::::::::::::::::::::::

optimized geometry written to: xtbopt.xyz


           -------------------------------------------------
          | TOTAL ENERGY              -30.654869036267 Eh   |
          | TOTAL ENTHALPY            -30.443905747959 Eh   |
          | TOTAL FREE ENERGY         -30.494949192963 Eh   |
          | GRADIENT NORM               0.000999588698 Eh/α |
          | HOMO-LUMO GAP               9.450834560473 eV   |
           -------------------------------------------------

------------------------------------------------------------------------
 * finished run on 2021/11/10 at 01:57:25.491     
------------------------------------------------------------------------
 total:
 * wall-time:     0 d,  0 h,  0 min,  0.876 sec
 *  cpu-time:     0 d,  0 h,  0 min,  8.730 sec
 * ratio c/w:     9.967 speedup
 SCF:
 * wall-time:     0 d,  0 h,  0 min,  0.025 sec
 *  cpu-time:     0 d,  0 h,  0 min,  0.206 sec
 * ratio c/w:     8.206 speedup
 ANC optimizer:
 * wall-time:     0 d,  0 h,  0 min,  0.057 sec
 *  cpu-time:     0 d,  0 h,  0 min,  0.439 sec
 * ratio c/w:     7.709 speedup
 numerical hessian:
 * wall-time:     0 d,  0 h,  0 min,  0.767 sec
 *  cpu-time:     0 d,  0 h,  0 min,  7.895 sec
 * ratio c/w:    10.296 speedup

