23
 energy: -30.654869036426 gnorm: 0.000999584354 xtb: 6.3.2 (30e43eb)
C         1.71535771118491   -1.44701424863059    0.04330840840346
C         2.43980154682681   -0.12748305647263    0.29500225945587
C         1.68662090181792    0.70603542522153   -1.94796994628849
H        -0.07521680741010   -0.50796618374475   -1.74945320238344
C         1.74976404055383    1.00978821896349   -0.45344158519864
H         2.70323972880574    0.62112450575948   -2.33919273645959
H         1.17462860625475    1.51066752474957   -2.47968452089364
C         1.65661448086348   -1.74715101004054   -1.45198011278713
H         2.44745676790370    0.08900509602223    1.36488661059372
H         3.47516580739040   -0.21071711156085   -0.04407107923315
C         0.93208685920274   -0.60850851062790   -2.17666865623584
H         1.12616589463902   -2.68459302224044   -1.63145012569414
H         2.67388312136859   -1.84112230898591   -1.83790110923626
H         2.28596112723877    1.94729911162925   -0.29020493205221
H         0.73446090855662    1.13363637915148   -0.06579608362900
H         2.22495418223927   -2.26105988696485    0.56379037737183
H         0.69861146883587   -1.38217133432431    0.44005140762332
Br       -3.22688776781908    0.10357218455060    1.49769347573020
C         1.76469924021796   -1.13824396554443   -4.38697873223860
O         0.65747472546996   -0.87526097848469   -3.54793976854573
H         2.48493478653162   -0.31602394310709   -4.38159201646387
H         2.26813865488357   -2.06964132690472   -4.11102342223047
H         1.34543493218717   -1.23963336370367   -5.38651784789314
