
                                 *****************
                                 * O   R   C   A *
                                 *****************

           --- An Ab Initio, DFT and Semiempirical electronic structure package ---

                  #######################################################
                  #                        -***-                        #
                  #          Department of theory and spectroscopy      #
                  #               Directorship: Frank Neese             #
                  #        Max Planck Institute fuer Kohlenforschung    #
                  #                Kaiser Wilhelm Platz 1               #
                  #                 D-45470 Muelheim/Ruhr               #
                  #                      Germany                        #
                  #                                                     #
                  #                  All rights reserved                #
                  #                        -***-                        #
                  #######################################################


                         Program Version 4.2.1 -  RELEASE  -


 With contributions from (in alphabetic order):
   Daniel Aravena         : Magnetic Suceptibility
   Michael Atanasov       : Ab Initio Ligand Field Theory (pilot matlab implementation)
   Alexander A. Auer      : GIAO ZORA, VPT2
   Ute Becker             : Parallelization
   Giovanni Bistoni       : ED, misc. LED, open-shell LED, HFLD
   Martin Brehm           : Molecular dynamics
   Dmytro Bykov           : SCF Hessian
   Vijay G. Chilkuri      : MRCI spin determinant printing, contributions to CSF-ICE
   Dipayan Datta          : RHF DLPNO-CCSD density
   Achintya Kumar Dutta   : EOM-CC, STEOM-CC
   Dmitry Ganyushin       : Spin-Orbit,Spin-Spin,Magnetic field MRCI
   Miquel Garcia          : C-PCM Hessian, Gaussian charge scheme
   Yang Guo               : DLPNO-NEVPT2, CIM, IAO-localization
   Andreas Hansen         : Spin unrestricted coupled pair/coupled cluster methods
   Benjamin Helmich-Paris : CASSCF linear response (MC-RPA)
   Lee Huntington         : MR-EOM, pCC
   Robert Izsak           : Overlap fitted RIJCOSX, COSX-SCS-MP3, EOM
   Christian Kollmar      : KDIIS, OOCD, Brueckner-CCSD(T), CCSD density
   Simone Kossmann        : Meta GGA functionals, TD-DFT gradient, OOMP2, MP2 Hessian
   Martin Krupicka        : AUTO-CI
   Lucas Lang             : DCDCAS
   Dagmar Lenk            : GEPOL surface, SMD
   Dimitrios Liakos       : Extrapolation schemes; Compound Job, initial MDCI parallelization
   Dimitrios Manganas     : Further ROCIS development; embedding schemes
   Dimitrios Pantazis     : SARC Basis sets
   Taras Petrenko         : DFT Hessian,TD-DFT gradient, ASA, ECA, R-Raman, ABS, FL, XAS/XES, NRVS
   Peter Pinski           : DLPNO-MP2, DLPNO-MP2 Gradient
   Christoph Reimann      : Effective Core Potentials
   Marius Retegan         : Local ZFS, SOC
   Christoph Riplinger    : Optimizer, TS searches, QM/MM, DLPNO-CCSD(T), (RO)-DLPNO pert. Triples
   Tobias Risthaus        : Range-separated hybrids, TD-DFT gradient, RPA, STAB
   Michael Roemelt        : Original ROCIS implementation
   Masaaki Saitow         : Open-shell DLPNO-CCSD energy and density
   Barbara Sandhoefer     : DKH picture change effects
   Avijit Sen             : IP-ROCIS
   Kantharuban Sivalingam : CASSCF convergence, NEVPT2, FIC-MRCI
   Bernardo de Souza      : ESD, SOC TD-DFT
   Georgi Stoychev        : AutoAux, RI-MP2 NMR
   Willem Van den Heuvel  : Paramagnetic NMR
   Boris Wezisla          : Elementary symmetry handling
   Frank Wennmohs         : Technical directorship


 We gratefully acknowledge several colleagues who have allowed us to
 interface, adapt or use parts of their codes:
   Stefan Grimme, W. Hujo, H. Kruse,             : VdW corrections, initial TS optimization,
                  C. Bannwarth                     DFT functionals, gCP, sTDA/sTD-DF
   Ed Valeev, F. Pavosevic, A. Kumar             : LibInt (2-el integral package), F12 methods
   Garnet Chan, S. Sharma, J. Yang, R. Olivares  : DMRG
   Ulf Ekstrom                                   : XCFun DFT Library
   Mihaly Kallay                                 : mrcc  (arbitrary order and MRCC methods)
   Andreas Klamt, Michael Diedenhofen            : otool_cosmo (COSMO solvation model)
   Jiri Pittner, Ondrej Demel                    : Mk-CCSD
   Frank Weinhold                                : gennbo (NPA and NBO analysis)
   Christopher J. Cramer and Donald G. Truhlar   : smd solvation model
   Lars Goerigk                                  : TD-DFT with DH, B97 family of functionals
   V. Asgeirsson, H. Jonsson                     : NEB implementation
   FAccTs GmbH                                   : IRC, NEB, NEB-TS, Multilevel, MM, QM/MM, CI optimization
   S Lehtola, MJT Oliveira, MAL Marques          : LibXC Library


 Your calculation uses the libint2 library for the computation of 2-el integrals
 For citations please refer to: http://libint.valeyev.net

 Your ORCA version has been built with support for libXC version: 4.2.3
 For citations please refer to: https://tddft.org/programs/libxc/

 This ORCA versions uses:
   CBLAS   interface :  Fast vector & matrix operations
   LAPACKE interface :  Fast linear algebra routines
   SCALAPACK package :  Parallel linear algebra routines




***************************************
The coordinates will be read from file: init.xyz
***************************************


Your calculation utilizes the SMD solvation module
Please cite in your paper:
A.V. Marenich, C.J. Cramer, D.G. Truhlar J. Phys. Chem. B, 113, (2009), 6378 

Your calculation utilizes the semiempirical GFN2-xTB method
Please cite in your paper:
C. Bannwarth, Ehlert S., S. Grimme,  J. Chem. Theory Comput., 15, (2019), 1652.
   

----- Orbital basis set information -----
Your calculation utilizes the basis: def2-SVP
   F. Weigend and R. Ahlrichs, Phys. Chem. Chem. Phys. 7, 3297 (2005).

================================================================================
                                        WARNINGS
                       Please study these warnings very carefully!
================================================================================


WARNING: The environment variable RSH_COMMAND is not set!
  ===> : All Displacements for the Numerical Hessian calculation
         will be started on localhost

WARNING: Geometry Optimization
  ===> : Switching off AutoStart
         For restart on a previous wavefunction, please use MOREAD

WARNING: Found dipole moment calculation with XTB calculation
  ===> : Switching off dipole moment calculation


INFO   : the flag for use of LIBINT has been found!

================================================================================
                                       INPUT FILE
================================================================================
NAME = opt+numfreq.inp
|  1> ! xTB2 Opt NumFreq
|  2> 
|  3> *xyzfile -1 1 init.xyz
|  4> 
|  5> %cpcm
|  6>  smd true
|  7>  SMDsolvent "METHANOL"
|  8> end
|  9> 
| 10> %pal
| 11>  nprocs 2
| 12> end
| 13> 
| 14>                          ****END OF INPUT****
================================================================================

                       *****************************
                       * Geometry Optimization Run *
                       *****************************

Geometry optimization settings:
Update method            Update   .... BFGS
Choice of coordinates    CoordSys .... Z-matrix Internals
Initial Hessian          InHess   .... Almoef's Model

Convergence Tolerances:
Energy Change            TolE     ....  5.0000e-06 Eh
Max. Gradient            TolMAXG  ....  3.0000e-04 Eh/bohr
RMS Gradient             TolRMSG  ....  1.0000e-04 Eh/bohr
Max. Displacement        TolMAXD  ....  4.0000e-03 bohr
RMS Displacement         TolRMSD  ....  2.0000e-03 bohr
Strict Convergence                ....  False
------------------------------------------------------------------------------
                        ORCA OPTIMIZATION COORDINATE SETUP
------------------------------------------------------------------------------

The optimization will be done in new redundant internal coordinates
Making redundant internal coordinates   ...  (new redundants) done
Evaluating the initial hessian          ...  (Almloef) done
Evaluating the coordinates              ...  done
Calculating the B-matrix                .... done
Calculating the G-matrix                .... done
Diagonalizing the G-matrix              .... done
Small eigenvalue found = 1.284e-02
Small eigenvalue found = 2.427e-02
The first mode is                       ....   65
The number of degrees of freedom        ....   63

    -----------------------------------------------------------------
                    Redundant Internal Coordinates


    -----------------------------------------------------------------
         Definition                    Initial Value    Approx d2E/dq
    -----------------------------------------------------------------
      1. B(C   1,C   0)                  1.5254         0.379982   
      2. B(C   4,C   2)                  1.5270         0.377676   
      3. B(C   4,C   1)                  1.5256         0.379647   
      4. B(H   5,C   2)                  1.0933         0.355732   
      5. B(H   6,C   2)                  1.0945         0.354176   
      6. B(C   7,C   0)                  1.5271         0.377588   
      7. B(H   8,C   1)                  1.0926         0.356708   
      8. B(H   9,C   1)                  1.0910         0.358801   
      9. B(C  10,C   7)                  1.5166         0.392425   
     10. B(C  10,H   3)                  1.1019         0.344734   
     11. B(C  10,C   2)                  1.5167         0.392305   
     12. B(H  11,C   7)                  1.0946         0.354010   
     13. B(H  12,C   7)                  1.0939         0.355005   
     14. B(H  13,C   4)                  1.0937         0.355217   
     15. B(H  14,C   4)                  1.0918         0.357770   
     16. B(H  15,C   0)                  1.0939         0.354954   
     17. B(H  16,C   0)                  1.0919         0.357623   
     18. B(Br 17,C  10)                  1.9605         0.258254   
     19. B(O  18,H   3)                  1.9305         0.014709   
     20. B(C  19,O  18)                  1.3169         0.731925   
     21. B(H  20,C  19)                  1.1333         0.307104   
     22. B(H  21,C  19)                  1.1308         0.310025   
     23. B(H  22,C  19)                  1.1346         0.305725   
     24. A(H  15,C   0,H  16)          108.5127         0.289869   
     25. A(C   1,C   0,H  16)          110.7012         0.324858   
     26. A(C   7,C   0,H  15)          108.1863         0.324121   
     27. A(C   7,C   0,H  16)          109.6916         0.324520   
     28. A(C   1,C   0,C   7)          110.3378         0.365076   
     29. A(C   1,C   0,H  15)          109.3521         0.324458   
     30. A(C   0,C   1,H   8)          109.4958         0.324721   
     31. A(C   0,C   1,C   4)          109.7576         0.365417   
     32. A(C   4,C   1,H   8)          109.5734         0.324674   
     33. A(C   4,C   1,H   9)          109.8176         0.324986   
     34. A(H   8,C   1,H   9)          108.3801         0.290243   
     35. A(C   0,C   1,H   9)          109.7948         0.325033   
     36. A(C   4,C   2,H   5)          109.9145         0.324250   
     37. A(C   4,C   2,C  10)          108.4215         0.367093   
     38. A(H   5,C   2,H   6)          108.4253         0.289528   
     39. A(H   6,C   2,C  10)          109.8588         0.326047   
     40. A(C   4,C   2,H   6)          110.2681         0.324017   
     41. A(H   5,C   2,C  10)          109.9489         0.326283   
     42. A(C  10,H   3,O  18)          171.2179         0.184781   
     43. A(H  13,C   4,H  14)          108.5558         0.289921   
     44. A(C   1,C   4,H  14)          110.6488         0.324832   
     45. A(C   2,C   4,H  13)          108.1807         0.324173   
     46. A(C   1,C   4,H  13)          109.3459         0.324450   
     47. A(C   1,C   4,C   2)          110.4059         0.365036   
     48. A(C   2,C   4,H  14)          109.6454         0.324555   
     49. A(H  11,C   7,H  12)          108.3701         0.289414   
     50. A(C  10,C   7,H  12)          110.0048         0.326189   
     51. A(C   0,C   7,H  12)          109.9275         0.324129   
     52. A(C  10,C   7,H  11)          109.8927         0.326039   
     53. A(C   0,C   7,H  11)          110.2541         0.323980   
     54. A(C   0,C   7,C  10)          108.3888         0.367097   
     55. A(C   2,C  10,H   3)          110.8028         0.324602   
     56. A(H   3,C  10,C   7)          110.8315         0.324618   
     57. A(C   7,C  10,Br 17)          109.1081         0.365868   
     58. A(H   3,C  10,Br 17)          105.5237         0.321539   
     59. A(C   2,C  10,Br 17)          109.0723         0.365848   
     60. A(C   2,C  10,C   7)          111.3117         0.369514   
     61. A(H   3,O  18,C  19)          120.1766         0.219239   
     62. A(H  21,C  19,H  22)          104.6408         0.277017   
     63. A(H  20,C  19,H  22)          104.4179         0.276615   
     64. A(O  18,C  19,H  22)          114.0899         0.350871   
     65. A(H  20,C  19,H  21)          104.5697         0.277209   
     66. A(O  18,C  19,H  21)          113.8428         0.351701   
     67. A(O  18,C  19,H  20)          114.1822         0.351138   
     68. D(H   9,C   1,C   0,H  16)     59.0341         0.011508   
     69. D(H   9,C   1,C   0,C   7)   -179.3493         0.011508   
     70. D(H   8,C   1,C   0,H  16)    -59.8427         0.011508   
     71. D(H   9,C   1,C   0,H  15)    -60.4694         0.011508   
     72. D(C   4,C   1,C   0,H  15)     60.3367         0.011508   
     73. D(C   4,C   1,C   0,C   7)    -58.5431         0.011508   
     74. D(H   8,C   1,C   0,H  15)   -179.3462         0.011508   
     75. D(H   8,C   1,C   0,C   7)     61.7739         0.011508   
     76. D(C   4,C   1,C   0,H  16)    179.8403         0.011508   
     77. D(H  13,C   4,C   1,H   9)     60.3378         0.011488   
     78. D(C   1,C   4,C   2,C  10)    -58.6829         0.011376   
     79. D(H  13,C   4,C   2,H   6)   -178.7560         0.011376   
     80. D(H  13,C   4,C   2,C  10)     60.9339         0.011376   
     81. D(C   2,C   4,C   1,H   8)    -61.8140         0.011488   
     82. D(C   2,C   4,C   1,H   9)    179.2482         0.011488   
     83. D(C   1,C   4,C   2,H   6)     61.6272         0.011376   
     84. D(H  13,C   4,C   1,C   0)    -60.4545         0.011488   
     85. D(C   1,C   4,C   2,H   5)   -178.8914         0.011376   
     86. D(C   2,C   4,C   1,C   0)     58.4559         0.011488   
     87. D(H  14,C   4,C   2,C  10)    179.1557         0.011376   
     88. D(H  14,C   4,C   2,H   6)    -60.5342         0.011376   
     89. D(H  14,C   4,C   2,H   5)     58.9472         0.011376   
     90. D(H  13,C   4,C   1,H   8)    179.2756         0.011488   
     91. D(H  14,C   4,C   1,H   9)    -59.1826         0.011488   
     92. D(H  13,C   4,C   2,H   5)    -59.2746         0.011376   
     93. D(H  14,C   4,C   1,C   0)   -179.9750         0.011488   
     94. D(H  14,C   4,C   1,H   8)     59.7551         0.011488   
     95. D(H  11,C   7,C   0,C   1)    -61.4414         0.011371   
     96. D(C  10,C   7,C   0,H  16)   -178.9056         0.011371   
     97. D(C  10,C   7,C   0,H  15)    -60.7063         0.011371   
     98. D(C  10,C   7,C   0,C   1)     58.8814         0.011371   
     99. D(H  12,C   7,C   0,H  16)    -58.6412         0.011371   
    100. D(H  12,C   7,C   0,H  15)     59.5581         0.011371   
    101. D(H  12,C   7,C   0,C   1)    179.1458         0.011371   
    102. D(H  11,C   7,C   0,H  16)     60.7715         0.011371   
    103. D(H  11,C   7,C   0,H  15)    178.9709         0.011371   
    104. D(Br 17,C  10,C   7,H  12)     58.8130         0.012237   
    105. D(Br 17,C  10,C   7,H  11)    -60.4231         0.012237   
    106. D(H   3,C  10,C   7,H  12)    -56.9642         0.012237   
    107. D(H   3,C  10,C   7,H  11)   -176.2003         0.012237   
    108. D(H   3,C  10,C   7,C   0)     63.2520         0.012237   
    109. D(C   2,C  10,C   7,H  12)    179.2340         0.012237   
    110. D(C   2,C  10,C   7,H  11)     59.9979         0.012237   
    111. D(C   2,C  10,C   7,C   0)    -60.5498         0.012237   
    112. D(Br 17,C  10,H   3,O  18)   -176.6861         0.109268   
    113. D(C   7,C  10,H   3,O  18)    -58.7038         0.109268   
    114. D(C   2,C  10,H   3,O  18)     65.3891         0.109268   
    115. D(Br 17,C  10,C   2,H   6)     60.3207         0.012229   
    116. D(Br 17,C  10,C   2,H   5)    -58.9278         0.012229   
    117. D(Br 17,C  10,C   2,C   4)   -179.1148         0.012229   
    118. D(C   7,C  10,C   2,H   6)    -60.1215         0.012229   
    119. D(C   7,C  10,C   2,H   5)   -179.3699         0.012229   
    120. D(C   7,C  10,C   2,C   4)     60.4431         0.012229   
    121. D(Br 17,C  10,C   7,C   0)    179.0292         0.012237   
    122. D(H   3,C  10,C   2,H   6)    176.0604         0.012229   
    123. D(H   3,C  10,C   2,H   5)     56.8119         0.012229   
    124. D(H   3,C  10,C   2,C   4)    -63.3751         0.012229   
    125. D(C  19,O  18,H   3,C  10)    147.1854         0.001600   
    126. D(H  22,C  19,O  18,H   3)    -66.8210         0.044746   
    127. D(H  21,C  19,O  18,H   3)    173.1588         0.044746   
    128. D(H  20,C  19,O  18,H   3)     53.1628         0.044746   
    -----------------------------------------------------------------

Number of atoms                         .... 23
Number of degrees of freedom            .... 128

         *************************************************************
         *                GEOMETRY OPTIMIZATION CYCLE   1            *
         *************************************************************
      -----------------------------------------------------------      
     |                   =====================                   |     
     |                           x T B                           |     
     |                   =====================                   |     
     |                         S. Grimme                         |     
     |          Mulliken Center for Theoretical Chemistry        |     
     |                    University of Bonn                     |     
      -----------------------------------------------------------      

   * xtb version 6.3.2 (30e43eb) compiled by 'schneider@apollo14' on 2020-08-08

   xtb is free software: you can redistribute it and/or modify it under
   the terms of the GNU Lesser General Public License as published by
   the Free Software Foundation, either version 3 of the License, or
   (at your option) any later version.
   
   xtb is distributed in the hope that it will be useful,
   but WITHOUT ANY WARRANTY; without even the implied warranty of
   MERCHANTABILITY or FITNESS FOR A PARTICULAR PURPOSE.  See the
   GNU Lesser General Public License for more details.
   
   Cite this work as:
   * S. Grimme, C. Bannwarth, P. Shushkov, J. Chem. Theory Comput., 2017,
     13, 1989-2009. DOI: 10.1021/acs.jctc.7b00118
   * C. Bannwarth, S. Ehlert and S. Grimme., J. Chem. Theory Comput., 2019,
     15, 1652-1671. DOI: 10.1021/acs.jctc.8b01176
   * P. Pracht, E. Caldeweyher, S. Ehlert, S. Grimme, ChemRxiv, 2019, preprint.
     DOI: 10.26434/chemrxiv.8326202.v1
   
   for GFN-FF:
   * S. Spicher and S. Grimme, Angew. Chem. Int. Ed., 2020,
     DOI: 10.1002/anie.202004239
   
   for DFT-D4:
   * E. Caldeweyher, C. Bannwarth and S. Grimme, J. Chem. Phys., 2017,
     147, 034112. DOI: 10.1063/1.4993215
   * E. Caldeweyher, S. Ehlert, A. Hansen, H. Neugebauer, S. Spicher,
     C. Bannwarth and S. Grimme, J. Chem. Phys., 2019, 150, 154122.
     DOI: 10.1063/1.5090222
   
   for sTDA-xTB:
   * S. Grimme and C. Bannwarth, J. Chem. Phys., 2016, 145, 054103.
     DOI: 10.1063/1.4959605
   
   in the mass-spec context:
   * V. Asgeirsson, C. Bauer and S. Grimme, Chem. Sci., 2017, 8, 4879.
     DOI: 10.1039/c7sc00601b
   * J. Koopman and S. Grimme, ACS Omega 2019, 4, 12, 15120-15133.
     DOI: 10.1021/acsomega.9b02011
   
   for metadynamics refer to:
   * S. Grimme, J. Chem. Theory Comput., 2019, 155, 2847-2862
     DOI: 10.1021/acs.jctc.9b00143
   
   with help from (in alphabetical order)
   C. Bannwarth, F. Bohle, G. Brandenburg, E. Caldeweyher, M. Checinski,
   S. Dohm, S. Ehlert, S. Ehrlich, F. März, H. Neugebauer, J. Pisarek,
   P. Pracht, P. Shushkov, and S. Spicher.
   
 * started run on 2021/11/10 at 00:19:09.842     

           -------------------------------------------------
          |                Calculation Setup                |
           -------------------------------------------------

          program call               : /opt/orca/otool_xtb opt+numfreq_XTB.xyz --grad -c -1 -u 0 -P 2 --namespace opt+numfreq --gbsa methanol
          calculation namespace      : opt+numfreq
          coordinate file            : opt+numfreq_XTB.xyz
          omp threads                :                     2
          number of atoms            :                    23
          number of electrons        :                    56
          charge                     :                    -1
          spin                       :                   0.0
          first test random number   :      0.03449259956108

   ID    Z sym.   atoms
    1    6 C      1-3, 5, 8, 11, 20
    2    1 H      4, 6, 7, 9, 10, 12-17, 21-23
    3   35 Br     18
    4    8 O      19

molecular fragmentation (1/2 indicates fragments):
11111111111111111122222
# atoms in fragment 1/2:    18     5
 fragment masses (1/2) :      163.06       31.03
CMA distance (Bohr)    :   7.287
constraining FC (au)   :  0.0500
########################################################################
[WARNING] Please study the warnings concerning your input carefully
-1- prog_main_parseArguments: Process number higher than OMP_NUM_THREADS, I hope you know what you are doing.
########################################################################

           -------------------------------------------------
          |                 G F N 2 - x T B                 |
           -------------------------------------------------

        Reference                      10.1021/acs.jctc.8b01176
      * Hamiltonian:
        H0-scaling (s, p, d)           1.850000    2.230000    2.230000
        zeta-weighting                 0.500000
      * Dispersion:
        s8                             2.700000
        a1                             0.520000
        a2                             5.000000
        s9                             5.000000
      * Repulsion:
        kExp                           1.500000    1.000000
        rExp                           1.000000
      * Coulomb:
        alpha                          2.000000
        third order                    shell-resolved
        anisotropic                    true
        a3                             3.000000
        a5                             4.000000
        cn-shift                       1.200000
        cn-exp                         4.000000
        max-rad                        5.000000

      * Solvation model:               GBSA
        Solvent                        methanol
        Parameter file                 internal GFN2-xTB/GBSA
        Dielectric constant                3.2700E+01
        Reference state                gsolv [1 M gas/solution]
        Free energy shift                  3.3569E-03 Eh       2.1065E+00 kcal/mol
        Temperature                        2.9815E+02 K
        Density                            7.9200E-01 kg/L
        Solvent mass                       3.2040E+01 g/mol
        Interaction kernel             Still
        Born radius scaling (c1)           1.6087E+00
        Born radii integrator          GBOBC
        Born offset                        5.6550E-04 a0       1.0686E-03 AA
        H-bond correction              true
        Ion screening                  false
        Surface tension                    1.0000E-05 Eh       1.5569E+01 dyn/cm
        Grid points                               230 per atom
q/qsh data taken from xtbrestart
CAMM data taken from xtbrestart

          ...................................................
          :                      SETUP                      :
          :.................................................:
          :  # basis functions                  56          :
          :  # atomic orbitals                  55          :
          :  # shells                           33          :
          :  # electrons                        56          :
          :  max. iterations                   250          :
          :  Hamiltonian                  GFN2-xTB          :
          :  restarted?                       true          :
          :  GBSA solvation                   true          :
          :  PC potential                    false          :
          :  electronic temp.          300.0000000     K    :
          :  accuracy                    1.0000000          :
          :  -> integral cutoff          0.2500000E+02      :
          :  -> integral neglect         0.1000000E-07      :
          :  -> SCF convergence          0.1000000E-05 Eh   :
          :  -> wf. convergence          0.1000000E-03 e    :
          :  Broyden damping             0.4000000          :
          ...................................................

 iter      E             dE          RMSdq      gap      omega  full diag
   1    -30.9014186 -0.309014E+02  0.232E-06    2.99       0.0  T
   2    -30.9014186 -0.497380E-13  0.181E-06    2.99   11502.3  T
   3    -30.9014186  0.461853E-13  0.142E-06    2.99   14638.9  T

   *** convergence criteria satisfied after 3 iterations ***

         #    Occupation            Energy/Eh            Energy/eV
      -------------------------------------------------------------
         1        2.0000           -0.8310991             -22.6154
       ...           ...                  ...                  ...
        22        2.0000           -0.4251748             -11.5696
        23        2.0000           -0.4237872             -11.5318
        24        2.0000           -0.4220685             -11.4851
        25        2.0000           -0.3983801             -10.8405
        26        2.0000           -0.3956274             -10.7656
        27        2.0000           -0.3163898              -8.6094
        28        2.0000           -0.3146464              -8.5620 (HOMO)
        29                         -0.2048232              -5.5735 (LUMO)
        30                          0.0393259               1.0701
        31                          0.0466534               1.2695
        32                          0.0541314               1.4730
        33                          0.0628373               1.7099
       ...                                ...                  ...
        55                          0.3988226              10.8525
      -------------------------------------------------------------
                  HL-Gap            0.1098233 Eh            2.9884 eV
             Fermi-level           -0.2597348 Eh           -7.0677 eV

 SCC (total)                   0 d,  0 h,  0 min,  0.023 sec
 SCC setup                      ...        0 min,  0.001 sec (  4.452%)
 Dispersion                     ...        0 min,  0.000 sec (  0.834%)
 classical contributions        ...        0 min,  0.000 sec (  0.380%)
 integral evaluation            ...        0 min,  0.008 sec ( 35.331%)
 iterations                     ...        0 min,  0.004 sec ( 17.868%)
 molecular gradient             ...        0 min,  0.009 sec ( 40.114%)
 printout                       ...        0 min,  0.000 sec (  0.953%)

         :::::::::::::::::::::::::::::::::::::::::::::::::::::
         ::                     SUMMARY                     ::
         :::::::::::::::::::::::::::::::::::::::::::::::::::::
         :: total energy             -30.580945514234 Eh    ::
         :: total w/o Gsasa/hb       -30.569458341439 Eh    ::
         :: gradient norm              0.000561986676 Eh/a0 ::
         :: HOMO-LUMO gap              2.988443513984 eV    ::
         ::.................................................::
         :: SCC energy               -30.901418645930 Eh    ::
         :: -> isotropic ES            0.218614412683 Eh    ::
         :: -> anisotropic ES         -0.015842162176 Eh    ::
         :: -> anisotropic XC         -0.010294523829 Eh    ::
         :: -> dispersion             -0.018852448858 Eh    ::
         :: -> Gsolv                  -0.118253284917 Eh    ::
         ::    -> Gborn               -0.106766112122 Eh    ::
         ::    -> Gsasa               -0.012464974155 Eh    ::
         ::    -> Ghb                 -0.002379128163 Eh    ::
         ::    -> Gshift               0.003356929523 Eh    ::
         :: repulsion energy           0.320306665702 Eh    ::
         :: add. restraining           0.000000000000 Eh    ::
         :: total charge              -1.000000000000 e     ::
         :::::::::::::::::::::::::::::::::::::::::::::::::::::

           -------------------------------------------------
          |                Property Printout                |
           -------------------------------------------------

    * Orbital Energies and Occupations

         #    Occupation            Energy/Eh            Energy/eV
      -------------------------------------------------------------
         1        2.0000           -0.8310991             -22.6154
       ...           ...                  ...                  ...
        16        2.0000           -0.4801387             -13.0652
        17        2.0000           -0.4724408             -12.8558
        18        2.0000           -0.4713105             -12.8250
        19        2.0000           -0.4531084             -12.3297
        20        2.0000           -0.4429698             -12.0538
        21        2.0000           -0.4412907             -12.0081
        22        2.0000           -0.4251748             -11.5696
        23        2.0000           -0.4237872             -11.5318
        24        2.0000           -0.4220685             -11.4851
        25        2.0000           -0.3983801             -10.8405
        26        2.0000           -0.3956274             -10.7656
        27        2.0000           -0.3163898              -8.6094
        28        2.0000           -0.3146464              -8.5620 (HOMO)
        29                         -0.2048232              -5.5735 (LUMO)
        30                          0.0393259               1.0701
        31                          0.0466534               1.2695
        32                          0.0541314               1.4730
        33                          0.0628373               1.7099
        34                          0.0863533               2.3498
        35                          0.0926907               2.5222
        36                          0.0953518               2.5947
        37                          0.1141691               3.1067
        38                          0.1153873               3.1398
        39                          0.1288484               3.5061
       ...                                ...                  ...
        55                          0.3988226              10.8525
      -------------------------------------------------------------
                  HL-Gap            0.1098233 Eh            2.9884 eV
             Fermi-level           -0.2597348 Eh           -7.0677 eV

     #   Z          covCN         q      C6AA      α(0)
     1   6 C        3.809    -0.053    21.521     6.604
     2   6 C        3.806    -0.060    21.652     6.624
     3   6 C        3.886    -0.045    21.326     6.565
     4   1 H        0.924     0.050     2.318     2.381
     5   6 C        3.809    -0.055    21.552     6.608
     6   1 H        0.924     0.025     2.665     2.553
     7   1 H        0.924     0.047     2.362     2.404
     8   6 C        3.885    -0.043    21.287     6.559
     9   1 H        0.924     0.048     2.344     2.394
    10   1 H        0.924     0.039     2.457     2.451
    11   6 C        3.800     0.062    19.542     6.294
    12   1 H        0.924     0.046     2.372     2.409
    13   1 H        0.924     0.020     2.741     2.589
    14   1 H        0.924     0.026     2.648     2.545
    15   1 H        0.924     0.043     2.412     2.429
    16   1 H        0.924     0.023     2.687     2.563
    17   1 H        0.924     0.041     2.440     2.443
    18  35 Br       1.074    -0.243   191.836    22.332
    19   8 O        0.855    -0.824    32.326     7.623
    20   6 C        3.605     0.204    17.856     6.107
    21   1 H        0.917    -0.117     6.206     3.896
    22   1 H        0.917    -0.114     6.083     3.858
    23   1 H        0.916    -0.119     6.271     3.917

 Mol. C6AA /au·bohr⁶  :       5776.882181
 Mol. C8AA /au·bohr⁸  :     153826.745611
 Mol. α(0) /au        :        114.148990


Wiberg/Mayer (AO) data.
largest (>0.10) Wiberg bond orders for each atom

 ---------------------------------------------------------------------------
     #   Z sym  total        # sym  WBO       # sym  WBO       # sym  WBO
 ---------------------------------------------------------------------------
     1   6 C    3.997 --     2 C    1.010     8 C    0.998    16 H    0.978
                            17 H    0.975
     2   6 C    3.997 --     5 C    1.010     1 C    1.010    10 H    0.977
                             9 H    0.976
     3   6 C    3.996 --    11 C    1.012     5 C    0.998     6 H    0.978
                             7 H    0.975
     4   1 H    0.997 --    11 C    0.944
     5   6 C    3.997 --     2 C    1.010     3 C    0.998    14 H    0.978
                            15 H    0.975
     6   1 H    0.999 --     3 C    0.978
     7   1 H    0.998 --     3 C    0.975
     8   6 C    3.997 --    11 C    1.013     1 C    0.998    13 H    0.979
                            12 H    0.975
     9   1 H    0.998 --     2 C    0.976
    10   1 H    0.998 --     2 C    0.977
    11   6 C    3.928 --     8 C    1.013     3 C    1.012     4 H    0.944
                            18 Br   0.902
    12   1 H    0.998 --     8 C    0.975
    13   1 H    1.000 --     8 C    0.979
    14   1 H    0.999 --     5 C    0.978
    15   1 H    0.998 --     5 C    0.975
    16   1 H    0.999 --     1 C    0.978
    17   1 H    0.998 --     1 C    0.975
    18  35 Br   0.965 --    11 C    0.902
    19   8 O    1.366 --    20 C    1.163
    20   6 C    3.977 --    19 O    1.163    22 H    0.939    21 H    0.937
                            23 H    0.936
    21   1 H    0.986 --    20 C    0.937
    22   1 H    0.987 --    20 C    0.939
    23   1 H    0.986 --    20 C    0.936
 ---------------------------------------------------------------------------

Topologies differ in total number of bonds
Writing topology from bond orders to xtbtopo.mol

molecular dipole:
                 x           y           z       tot (Debye)
 q only:       -5.358      -0.310       7.803
   full:       -4.080      -0.391       7.386      21.469
molecular quadrupole (traceless):
                xx          xy          yy          xz          yz          zz
 q only:      -11.538      -3.282      46.559      65.292       2.790     -35.021
  q+dip:      -16.128      -4.618      45.477      50.257       3.328     -29.349
   full:      -15.484      -4.631      45.050      51.677       3.677     -29.566


           -------------------------------------------------
          | TOTAL ENERGY              -30.580945514234 Eh   |
          | GRADIENT NORM               0.000561986676 Eh/α |
          | HOMO-LUMO GAP               2.988443513984 eV   |
           -------------------------------------------------

------------------------------------------------------------------------
 * finished run on 2021/11/10 at 00:19:09.879     
------------------------------------------------------------------------
 total:
 * wall-time:     0 d,  0 h,  0 min,  0.037 sec
 *  cpu-time:     0 d,  0 h,  0 min,  0.236 sec
 * ratio c/w:     6.380 speedup
 SCF:
 * wall-time:     0 d,  0 h,  0 min,  0.023 sec
 *  cpu-time:     0 d,  0 h,  0 min,  0.147 sec
 * ratio c/w:     6.433 speedup


-------------------------   --------------------
FINAL SINGLE POINT ENERGY       -30.580945514230
-------------------------   --------------------

------------------------------------------------------------------------------
                         ORCA GEOMETRY RELAXATION STEP
------------------------------------------------------------------------------

Reading the OPT-File                    .... done
Getting information on internals        .... done
Copying old internal coords+grads       .... done
Making the new internal coordinates     .... (new redundants).... done
Validating the new internal coordinates .... (new redundants).... done
Calculating the B-matrix                .... done
Calculating the G,G- and P matrices     .... done
Transforming gradient to internals      .... done
Projecting the internal gradient        .... done
Number of atoms                         ....  23
Number of internal coordinates          .... 128
Current Energy                          ....   -30.580945514 Eh
Current gradient norm                   ....     0.000561987 Eh/bohr
Maximum allowed component of the step   ....  0.300
Current trust radius                    ....  0.300
Evaluating the initial hessian          ....  (Almloef) done
Projecting the Hessian                  .... done
Forming the augmented Hessian           .... done
Diagonalizing the augmented Hessian     .... done
Last element of RFO vector              ....  0.996267811
Lowest eigenvalues of augmented Hessian:
 -0.000015979  0.001611475  0.014708825  0.014855708  0.015187987
Length of the computed step             ....  0.086639339
The final length of the internal step   ....  0.086639339
Converting the step to cartesian space:
 Initial RMS(Int)=    0.0076579080
Transforming coordinates:
 Iter   0:  RMS(Cart)=    0.0453700736 RMS(Int)=    0.5553295190
 Iter   1:  RMS(Cart)=    0.0017323456 RMS(Int)=    0.0009185651
 Iter   2:  RMS(Cart)=    0.0001180414 RMS(Int)=    0.0000235015
 Iter   3:  RMS(Cart)=    0.0000092982 RMS(Int)=    0.0000048005
 Iter   4:  RMS(Cart)=    0.0000006278 RMS(Int)=    0.0000001435
 Iter   5:  RMS(Cart)=    0.0000000499 RMS(Int)=    0.0000000249
done
Storing new coordinates                 .... done

                                .--------------------.
          ----------------------|Geometry convergence|-------------------------
          Item                value                   Tolerance       Converged
          ---------------------------------------------------------------------
          RMS gradient        0.0000661552            0.0001000000      YES
          MAX gradient        0.0003132252            0.0003000000      NO
          RMS step            0.0076579080            0.0020000000      NO
          MAX step            0.0858862159            0.0040000000      NO
          ........................................................
          Max(Bonds)      0.0002      Max(Angles)    0.09
          Max(Dihed)        4.92      Max(Improp)    0.00
          ---------------------------------------------------------------------

The optimization has not yet converged - more geometry cycles are needed


    ---------------------------------------------------------------------------
                         Redundant Internal Coordinates
                            (Angstroem and degrees)

        Definition                    Value    dE/dq     Step     New-Value
    ----------------------------------------------------------------------------
     1. B(C   1,C   0)                1.5254 -0.000094  0.0002    1.5256   
     2. B(C   4,C   2)                1.5270 -0.000080  0.0001    1.5271   
     3. B(C   4,C   1)                1.5256 -0.000011  0.0001    1.5257   
     4. B(H   5,C   2)                1.0933 -0.000009  0.0000    1.0933   
     5. B(H   6,C   2)                1.0945 -0.000086  0.0001    1.0946   
     6. B(C   7,C   0)                1.5271 -0.000033  0.0001    1.5272   
     7. B(H   8,C   1)                1.0926 -0.000166  0.0002    1.0928   
     8. B(H   9,C   1)                1.0910 -0.000159  0.0002    1.0912   
     9. B(C  10,C   7)                1.5166  0.000025 -0.0001    1.5165   
    10. B(C  10,H   3)                1.1019  0.000003 -0.0000    1.1019   
    11. B(C  10,C   2)                1.5167  0.000024 -0.0001    1.5166   
    12. B(H  11,C   7)                1.0946 -0.000017  0.0000    1.0947   
    13. B(H  12,C   7)                1.0939  0.000003 -0.0000    1.0939   
    14. B(H  13,C   4)                1.0937 -0.000081  0.0001    1.0938   
    15. B(H  14,C   4)                1.0918  0.000015 -0.0000    1.0917   
    16. B(H  15,C   0)                1.0939 -0.000082  0.0001    1.0940   
    17. B(H  16,C   0)                1.0919 -0.000012  0.0000    1.0919   
    18. B(Br 17,C  10)                1.9605 -0.000059  0.0001    1.9606   
    19. B(O  18,H   3)                1.9305 -0.000003  0.0001    1.9306   
    20. B(C  19,O  18)                1.3169  0.000313 -0.0002    1.3167   
    21. B(H  20,C  19)                1.1333 -0.000124  0.0002    1.1335   
    22. B(H  21,C  19)                1.1308  0.000104 -0.0002    1.1306   
    23. B(H  22,C  19)                1.1346  0.000019 -0.0000    1.1345   
    24. A(H  15,C   0,H  16)          108.51 -0.000009   -0.00    108.51   
    25. A(C   1,C   0,H  16)          110.70 -0.000003   -0.00    110.70   
    26. A(C   7,C   0,H  15)          108.19  0.000021   -0.01    108.18   
    27. A(C   7,C   0,H  16)          109.69  0.000019   -0.01    109.69   
    28. A(C   1,C   0,C   7)          110.34 -0.000050    0.03    110.36   
    29. A(C   1,C   0,H  15)          109.35  0.000023   -0.01    109.35   
    30. A(C   0,C   1,H   8)          109.50 -0.000023    0.01    109.50   
    31. A(C   0,C   1,C   4)          109.76  0.000042    0.02    109.78   
    32. A(C   4,C   1,H   8)          109.57 -0.000018    0.00    109.58   
    33. A(C   4,C   1,H   9)          109.82  0.000004   -0.01    109.80   
    34. A(H   8,C   1,H   9)          108.38  0.000008   -0.00    108.38   
    35. A(C   0,C   1,H   9)          109.79 -0.000013   -0.01    109.79   
    36. A(C   4,C   2,H   5)          109.91  0.000020   -0.00    109.91   
    37. A(C   4,C   2,C  10)          108.42  0.000045   -0.03    108.39   
    38. A(H   5,C   2,H   6)          108.43  0.000004    0.01    108.43   
    39. A(H   6,C   2,C  10)          109.86  0.000005    0.01    109.86   
    40. A(C   4,C   2,H   6)          110.27 -0.000059    0.02    110.29   
    41. A(H   5,C   2,C  10)          109.95 -0.000015    0.00    109.95   
    42. A(C  10,H   3,O  18)          171.22  0.000288   -0.09    171.13   
    43. A(H  13,C   4,H  14)          108.56 -0.000012    0.00    108.56   
    44. A(C   1,C   4,H  14)          110.65  0.000022   -0.00    110.65   
    45. A(C   2,C   4,H  13)          108.18  0.000042   -0.01    108.17   
    46. A(C   1,C   4,H  13)          109.35 -0.000011    0.00    109.35   
    47. A(C   1,C   4,C   2)          110.41 -0.000019    0.00    110.41   
    48. A(C   2,C   4,H  14)          109.65 -0.000021    0.01    109.65   
    49. A(H  11,C   7,H  12)          108.37  0.000004    0.01    108.38   
    50. A(C  10,C   7,H  12)          110.00 -0.000020   -0.00    110.00   
    51. A(C   0,C   7,H  12)          109.93  0.000017   -0.01    109.92   
    52. A(C  10,C   7,H  11)          109.89 -0.000007    0.01    109.90   
    53. A(C   0,C   7,H  11)          110.25 -0.000057    0.02    110.27   
    54. A(C   0,C   7,C  10)          108.39  0.000062   -0.02    108.36   
    55. A(C   2,C  10,H   3)          110.80 -0.000005    0.00    110.80   
    56. A(H   3,C  10,C   7)          110.83  0.000096   -0.04    110.80   
    57. A(C   7,C  10,Br 17)          109.11  0.000075   -0.01    109.10   
    58. A(H   3,C  10,Br 17)          105.52 -0.000078    0.04    105.56   
    59. A(C   2,C  10,Br 17)          109.07 -0.000027    0.02    109.10   
    60. A(C   2,C  10,C   7)          111.31 -0.000062   -0.02    111.30   
    61. A(H   3,O  18,C  19)          120.18  0.000234   -0.06    120.12   
    62. A(H  21,C  19,H  22)          104.64 -0.000005   -0.01    104.63   
    63. A(H  20,C  19,H  22)          104.42 -0.000096    0.02    104.44   
    64. A(O  18,C  19,H  22)          114.09  0.000169   -0.03    114.06   
    65. A(H  20,C  19,H  21)          104.57 -0.000053    0.02    104.59   
    66. A(O  18,C  19,H  21)          113.84 -0.000032    0.00    113.85   
    67. A(O  18,C  19,H  20)          114.18 -0.000002    0.00    114.18   
    68. D(H   9,C   1,C   0,H  16)     59.03 -0.000029    0.09     59.13   
    69. D(H   9,C   1,C   0,C   7)   -179.35 -0.000040    0.10   -179.25   
    70. D(H   8,C   1,C   0,H  16)    -59.84 -0.000016    0.10    -59.74   
    71. D(H   9,C   1,C   0,H  15)    -60.47 -0.000030    0.10    -60.37   
    72. D(C   4,C   1,C   0,H  15)     60.34 -0.000007    0.09     60.43   
    73. D(C   4,C   1,C   0,C   7)    -58.54 -0.000017    0.09    -58.45   
    74. D(H   8,C   1,C   0,H  15)   -179.35 -0.000018    0.11   -179.24   
    75. D(H   8,C   1,C   0,C   7)     61.77 -0.000027    0.11     61.88   
    76. D(C   4,C   1,C   0,H  16)    179.84 -0.000005    0.08    179.92   
    77. D(H  13,C   4,C   1,H   9)     60.34  0.000006   -0.06     60.28   
    78. D(C   1,C   4,C   2,C  10)    -58.68  0.000013   -0.04    -58.72   
    79. D(H  13,C   4,C   2,H   6)   -178.76  0.000012   -0.05   -178.80   
    80. D(H  13,C   4,C   2,C  10)     60.93  0.000014   -0.04     60.89   
    81. D(C   2,C   4,C   1,H   8)    -61.81  0.000039   -0.08    -61.89   
    82. D(C   2,C   4,C   1,H   9)    179.25  0.000039   -0.07    179.18   
    83. D(C   1,C   4,C   2,H   6)     61.63  0.000011   -0.04     61.59   
    84. D(H  13,C   4,C   1,C   0)    -60.45 -0.000007   -0.05    -60.50   
    85. D(C   1,C   4,C   2,H   5)   -178.89 -0.000009   -0.02   -178.91   
    86. D(C   2,C   4,C   1,C   0)     58.46  0.000026   -0.06     58.39   
    87. D(H  14,C   4,C   2,C  10)    179.16  0.000011   -0.04    179.11   
    88. D(H  14,C   4,C   2,H   6)    -60.53  0.000009   -0.04    -60.58   
    89. D(H  14,C   4,C   2,H   5)     58.95 -0.000010   -0.02     58.92   
    90. D(H  13,C   4,C   1,H   8)    179.28  0.000006   -0.07    179.21   
    91. D(H  14,C   4,C   1,H   9)    -59.18  0.000014   -0.06    -59.25   
    92. D(H  13,C   4,C   2,H   5)    -59.27 -0.000008   -0.03    -59.30   
    93. D(H  14,C   4,C   1,C   0)   -179.97  0.000001   -0.05   -180.03   
    94. D(H  14,C   4,C   1,H   8)     59.76  0.000015   -0.07     59.68   
    95. D(H  11,C   7,C   0,C   1)    -61.44  0.000019   -0.04    -61.48   
    96. D(C  10,C   7,C   0,H  16)   -178.91 -0.000008   -0.02   -178.92   
    97. D(C  10,C   7,C   0,H  15)    -60.71  0.000004   -0.03    -60.74   
    98. D(C  10,C   7,C   0,C   1)     58.88  0.000015   -0.03     58.85   
    99. D(H  12,C   7,C   0,H  16)    -58.64  0.000015   -0.04    -58.68   
   100. D(H  12,C   7,C   0,H  15)     59.56  0.000028   -0.06     59.50   
   101. D(H  12,C   7,C   0,C   1)    179.15  0.000039   -0.05    179.09   
   102. D(H  11,C   7,C   0,H  16)     60.77 -0.000005   -0.03     60.75   
   103. D(H  11,C   7,C   0,H  15)    178.97  0.000008   -0.04    178.93   
   104. D(Br 17,C  10,C   7,H  12)     58.81  0.000012   -0.07     58.74   
   105. D(Br 17,C  10,C   7,H  11)    -60.42  0.000024   -0.08    -60.51   
   106. D(H   3,C  10,C   7,H  12)    -56.96  0.000008   -0.09    -57.05   
   107. D(H   3,C  10,C   7,H  11)   -176.20  0.000019   -0.10   -176.30   
   108. D(H   3,C  10,C   7,C   0)     63.25  0.000055   -0.12     63.14   
   109. D(C   2,C  10,C   7,H  12)    179.23 -0.000011   -0.05    179.18   
   110. D(C   2,C  10,C   7,H  11)     60.00  0.000001   -0.07     59.93   
   111. D(C   2,C  10,C   7,C   0)    -60.55  0.000037   -0.08    -60.63   
   112. D(Br 17,C  10,H   3,O  18)   -176.69 -0.000027    0.00   -176.68   
   113. D(C   7,C  10,H   3,O  18)    -58.70  0.000067   -0.00    -58.71   
   114. D(C   2,C  10,H   3,O  18)     65.39  0.000052   -0.05     65.34   
   115. D(Br 17,C  10,C   2,H   6)     60.32  0.000023    0.11     60.43   
   116. D(Br 17,C  10,C   2,H   5)    -58.93  0.000024    0.10    -58.83   
   117. D(Br 17,C  10,C   2,C   4)   -179.11 -0.000019    0.12   -179.00   
   118. D(C   7,C  10,C   2,H   6)    -60.12 -0.000014    0.11    -60.01   
   119. D(C   7,C  10,C   2,H   5)   -179.37 -0.000013    0.10   -179.27   
   120. D(C   7,C  10,C   2,C   4)     60.44 -0.000056    0.12     60.56   
   121. D(Br 17,C  10,C   7,C   0)    179.03  0.000060   -0.10    178.93   
   122. D(H   3,C  10,C   2,H   6)    176.06 -0.000090    0.17    176.23   
   123. D(H   3,C  10,C   2,H   5)     56.81 -0.000089    0.16     56.97   
   124. D(H   3,C  10,C   2,C   4)    -63.38 -0.000132    0.18    -63.20   
   125. D(C  19,O  18,H   3,C  10)    147.19  0.000139   -4.92    142.26   
   126. D(H  22,C  19,O  18,H   3)    -66.82 -0.000041    0.08    -66.74   
   127. D(H  21,C  19,O  18,H   3)    173.16 -0.000139    0.11    173.27   
   128. D(H  20,C  19,O  18,H   3)     53.16 -0.000041    0.09     53.25   
    ----------------------------------------------------------------------------

         *************************************************************
         *                GEOMETRY OPTIMIZATION CYCLE   2            *
         *************************************************************
      -----------------------------------------------------------      
     |                   =====================                   |     
     |                           x T B                           |     
     |                   =====================                   |     
     |                         S. Grimme                         |     
     |          Mulliken Center for Theoretical Chemistry        |     
     |                    University of Bonn                     |     
      -----------------------------------------------------------      

   * xtb version 6.3.2 (30e43eb) compiled by 'schneider@apollo14' on 2020-08-08

   xtb is free software: you can redistribute it and/or modify it under
   the terms of the GNU Lesser General Public License as published by
   the Free Software Foundation, either version 3 of the License, or
   (at your option) any later version.
   
   xtb is distributed in the hope that it will be useful,
   but WITHOUT ANY WARRANTY; without even the implied warranty of
   MERCHANTABILITY or FITNESS FOR A PARTICULAR PURPOSE.  See the
   GNU Lesser General Public License for more details.
   
   Cite this work as:
   * S. Grimme, C. Bannwarth, P. Shushkov, J. Chem. Theory Comput., 2017,
     13, 1989-2009. DOI: 10.1021/acs.jctc.7b00118
   * C. Bannwarth, S. Ehlert and S. Grimme., J. Chem. Theory Comput., 2019,
     15, 1652-1671. DOI: 10.1021/acs.jctc.8b01176
   * P. Pracht, E. Caldeweyher, S. Ehlert, S. Grimme, ChemRxiv, 2019, preprint.
     DOI: 10.26434/chemrxiv.8326202.v1
   
   for GFN-FF:
   * S. Spicher and S. Grimme, Angew. Chem. Int. Ed., 2020,
     DOI: 10.1002/anie.202004239
   
   for DFT-D4:
   * E. Caldeweyher, C. Bannwarth and S. Grimme, J. Chem. Phys., 2017,
     147, 034112. DOI: 10.1063/1.4993215
   * E. Caldeweyher, S. Ehlert, A. Hansen, H. Neugebauer, S. Spicher,
     C. Bannwarth and S. Grimme, J. Chem. Phys., 2019, 150, 154122.
     DOI: 10.1063/1.5090222
   
   for sTDA-xTB:
   * S. Grimme and C. Bannwarth, J. Chem. Phys., 2016, 145, 054103.
     DOI: 10.1063/1.4959605
   
   in the mass-spec context:
   * V. Asgeirsson, C. Bauer and S. Grimme, Chem. Sci., 2017, 8, 4879.
     DOI: 10.1039/c7sc00601b
   * J. Koopman and S. Grimme, ACS Omega 2019, 4, 12, 15120-15133.
     DOI: 10.1021/acsomega.9b02011
   
   for metadynamics refer to:
   * S. Grimme, J. Chem. Theory Comput., 2019, 155, 2847-2862
     DOI: 10.1021/acs.jctc.9b00143
   
   with help from (in alphabetical order)
   C. Bannwarth, F. Bohle, G. Brandenburg, E. Caldeweyher, M. Checinski,
   S. Dohm, S. Ehlert, S. Ehrlich, F. März, H. Neugebauer, J. Pisarek,
   P. Pracht, P. Shushkov, and S. Spicher.
   
 * started run on 2021/11/10 at 00:19:10.146     

           -------------------------------------------------
          |                Calculation Setup                |
           -------------------------------------------------

          program call               : /opt/orca/otool_xtb opt+numfreq_XTB.xyz --grad -c -1 -u 0 -P 2 --namespace opt+numfreq --gbsa methanol
          calculation namespace      : opt+numfreq
          coordinate file            : opt+numfreq_XTB.xyz
          omp threads                :                     2
          number of atoms            :                    23
          number of electrons        :                    56
          charge                     :                    -1
          spin                       :                   0.0
          first test random number   :      0.26031822915844

   ID    Z sym.   atoms
    1    6 C      1-3, 5, 8, 11, 20
    2    1 H      4, 6, 7, 9, 10, 12-17, 21-23
    3   35 Br     18
    4    8 O      19

molecular fragmentation (1/2 indicates fragments):
11111111111111111122222
# atoms in fragment 1/2:    18     5
 fragment masses (1/2) :      163.06       31.03
CMA distance (Bohr)    :   7.284
constraining FC (au)   :  0.0500
########################################################################
[WARNING] Please study the warnings concerning your input carefully
-1- prog_main_parseArguments: Process number higher than OMP_NUM_THREADS, I hope you know what you are doing.
########################################################################

           -------------------------------------------------
          |                 G F N 2 - x T B                 |
           -------------------------------------------------

        Reference                      10.1021/acs.jctc.8b01176
      * Hamiltonian:
        H0-scaling (s, p, d)           1.850000    2.230000    2.230000
        zeta-weighting                 0.500000
      * Dispersion:
        s8                             2.700000
        a1                             0.520000
        a2                             5.000000
        s9                             5.000000
      * Repulsion:
        kExp                           1.500000    1.000000
        rExp                           1.000000
      * Coulomb:
        alpha                          2.000000
        third order                    shell-resolved
        anisotropic                    true
        a3                             3.000000
        a5                             4.000000
        cn-shift                       1.200000
        cn-exp                         4.000000
        max-rad                        5.000000

      * Solvation model:               GBSA
        Solvent                        methanol
        Parameter file                 internal GFN2-xTB/GBSA
        Dielectric constant                3.2700E+01
        Reference state                gsolv [1 M gas/solution]
        Free energy shift                  3.3569E-03 Eh       2.1065E+00 kcal/mol
        Temperature                        2.9815E+02 K
        Density                            7.9200E-01 kg/L
        Solvent mass                       3.2040E+01 g/mol
        Interaction kernel             Still
        Born radius scaling (c1)           1.6087E+00
        Born radii integrator          GBOBC
        Born offset                        5.6550E-04 a0       1.0686E-03 AA
        H-bond correction              true
        Ion screening                  false
        Surface tension                    1.0000E-05 Eh       1.5569E+01 dyn/cm
        Grid points                               230 per atom
q/qsh data taken from xtbrestart
CAMM data taken from xtbrestart

          ...................................................
          :                      SETUP                      :
          :.................................................:
          :  # basis functions                  56          :
          :  # atomic orbitals                  55          :
          :  # shells                           33          :
          :  # electrons                        56          :
          :  max. iterations                   250          :
          :  Hamiltonian                  GFN2-xTB          :
          :  restarted?                       true          :
          :  GBSA solvation                   true          :
          :  PC potential                    false          :
          :  electronic temp.          300.0000000     K    :
          :  accuracy                    1.0000000          :
          :  -> integral cutoff          0.2500000E+02      :
          :  -> integral neglect         0.1000000E-07      :
          :  -> SCF convergence          0.1000000E-05 Eh   :
          :  -> wf. convergence          0.1000000E-03 e    :
          :  Broyden damping             0.4000000          :
          ...................................................

 iter      E             dE          RMSdq      gap      omega  full diag
   1    -30.9013222 -0.309013E+02  0.965E-02    2.99       0.0  T
   2    -30.9013235 -0.134914E-05  0.587E-02    2.99       1.0  T
   3    -30.9013243 -0.802994E-06  0.761E-03    2.99       2.7  T
   4    -30.9013243 -0.227261E-07  0.221E-03    2.99       9.4  T
   5    -30.9013244 -0.773415E-08  0.149E-03    2.99      14.0  T
   6    -30.9013244 -0.359028E-08  0.766E-04    2.99      27.2  T
   7    -30.9013244 -0.193454E-08  0.429E-04    2.99      48.6  T

   *** convergence criteria satisfied after 7 iterations ***

         #    Occupation            Energy/Eh            Energy/eV
      -------------------------------------------------------------
         1        2.0000           -0.8310808             -22.6149
       ...           ...                  ...                  ...
        22        2.0000           -0.4252698             -11.5722
        23        2.0000           -0.4238555             -11.5337
        24        2.0000           -0.4221285             -11.4867
        25        2.0000           -0.3983903             -10.8408
        26        2.0000           -0.3956567             -10.7664
        27        2.0000           -0.3164236              -8.6103
        28        2.0000           -0.3146870              -8.5631 (HOMO)
        29                         -0.2048814              -5.5751 (LUMO)
        30                          0.0393601               1.0710
        31                          0.0466590               1.2697
        32                          0.0541081               1.4724
        33                          0.0628263               1.7096
       ...                                ...                  ...
        55                          0.3986683              10.8483
      -------------------------------------------------------------
                  HL-Gap            0.1098057 Eh            2.9880 eV
             Fermi-level           -0.2597842 Eh           -7.0691 eV

 SCC (total)                   0 d,  0 h,  0 min,  0.027 sec
 SCC setup                      ...        0 min,  0.001 sec (  4.311%)
 Dispersion                     ...        0 min,  0.000 sec (  0.914%)
 classical contributions        ...        0 min,  0.000 sec (  0.488%)
 integral evaluation            ...        0 min,  0.008 sec ( 27.651%)
 iterations                     ...        0 min,  0.008 sec ( 29.169%)
 molecular gradient             ...        0 min,  0.010 sec ( 36.918%)
 printout                       ...        0 min,  0.000 sec (  0.500%)

         :::::::::::::::::::::::::::::::::::::::::::::::::::::
         ::                     SUMMARY                     ::
         :::::::::::::::::::::::::::::::::::::::::::::::::::::
         :: total energy             -30.580957818238 Eh    ::
         :: total w/o Gsasa/hb       -30.569468094450 Eh    ::
         :: gradient norm              0.000307580495 Eh/a0 ::
         :: HOMO-LUMO gap              2.987964060117 eV    ::
         ::.................................................::
         :: SCC energy               -30.901324360756 Eh    ::
         :: -> isotropic ES            0.218523001161 Eh    ::
         :: -> anisotropic ES         -0.015847072350 Eh    ::
         :: -> anisotropic XC         -0.010304422065 Eh    ::
         :: -> dispersion             -0.018875297958 Eh    ::
         :: -> Gsolv                  -0.118200706409 Eh    ::
         ::    -> Gborn               -0.106710982622 Eh    ::
         ::    -> Gsasa               -0.012469443237 Eh    ::
         ::    -> Ghb                 -0.002377210073 Eh    ::
         ::    -> Gshift               0.003356929523 Eh    ::
         :: repulsion energy           0.320198878568 Eh    ::
         :: add. restraining           0.000000000000 Eh    ::
         :: total charge              -1.000000000000 e     ::
         :::::::::::::::::::::::::::::::::::::::::::::::::::::

           -------------------------------------------------
          |                Property Printout                |
           -------------------------------------------------

    * Orbital Energies and Occupations

         #    Occupation            Energy/Eh            Energy/eV
      -------------------------------------------------------------
         1        2.0000           -0.8310808             -22.6149
       ...           ...                  ...                  ...
        16        2.0000           -0.4801826             -13.0664
        17        2.0000           -0.4725152             -12.8578
        18        2.0000           -0.4713515             -12.8261
        19        2.0000           -0.4531664             -12.3313
        20        2.0000           -0.4430733             -12.0566
        21        2.0000           -0.4413215             -12.0090
        22        2.0000           -0.4252698             -11.5722
        23        2.0000           -0.4238555             -11.5337
        24        2.0000           -0.4221285             -11.4867
        25        2.0000           -0.3983903             -10.8408
        26        2.0000           -0.3956567             -10.7664
        27        2.0000           -0.3164236              -8.6103
        28        2.0000           -0.3146870              -8.5631 (HOMO)
        29                         -0.2048814              -5.5751 (LUMO)
        30                          0.0393601               1.0710
        31                          0.0466590               1.2697
        32                          0.0541081               1.4724
        33                          0.0628263               1.7096
        34                          0.0862353               2.3466
        35                          0.0924726               2.5163
        36                          0.0951578               2.5894
        37                          0.1139351               3.1003
        38                          0.1153586               3.1391
        39                          0.1285479               3.4980
       ...                                ...                  ...
        55                          0.3986683              10.8483
      -------------------------------------------------------------
                  HL-Gap            0.1098057 Eh            2.9880 eV
             Fermi-level           -0.2597842 Eh           -7.0691 eV

     #   Z          covCN         q      C6AA      α(0)
     1   6 C        3.809    -0.053    21.516     6.603
     2   6 C        3.806    -0.060    21.651     6.624
     3   6 C        3.885    -0.045    21.329     6.566
     4   1 H        0.924     0.050     2.317     2.381
     5   6 C        3.809    -0.055    21.552     6.608
     6   1 H        0.924     0.025     2.659     2.550
     7   1 H        0.924     0.047     2.362     2.403
     8   6 C        3.885    -0.043    21.284     6.559
     9   1 H        0.924     0.048     2.345     2.395
    10   1 H        0.924     0.039     2.459     2.452
    11   6 C        3.800     0.062    19.543     6.294
    12   1 H        0.924     0.046     2.373     2.409
    13   1 H        0.924     0.019     2.746     2.591
    14   1 H        0.924     0.026     2.647     2.544
    15   1 H        0.924     0.043     2.411     2.428
    16   1 H        0.924     0.023     2.694     2.567
    17   1 H        0.924     0.040     2.443     2.444
    18  35 Br       1.073    -0.243   191.830    22.332
    19   8 O        0.855    -0.824    32.323     7.622
    20   6 C        3.605     0.204    17.854     6.107
    21   1 H        0.917    -0.117     6.214     3.899
    22   1 H        0.917    -0.114     6.080     3.856
    23   1 H        0.916    -0.119     6.274     3.918

 Mol. C6AA /au·bohr⁶  :       5777.299568
 Mol. C8AA /au·bohr⁸  :     153831.852662
 Mol. α(0) /au        :        114.153497


Wiberg/Mayer (AO) data.
largest (>0.10) Wiberg bond orders for each atom

 ---------------------------------------------------------------------------
     #   Z sym  total        # sym  WBO       # sym  WBO       # sym  WBO
 ---------------------------------------------------------------------------
     1   6 C    3.997 --     2 C    1.010     8 C    0.998    16 H    0.978
                            17 H    0.975
     2   6 C    3.997 --     5 C    1.010     1 C    1.010    10 H    0.977
                             9 H    0.976
     3   6 C    3.996 --    11 C    1.012     5 C    0.998     6 H    0.978
                             7 H    0.975
     4   1 H    0.997 --    11 C    0.944
     5   6 C    3.997 --     2 C    1.010     3 C    0.998    14 H    0.978
                            15 H    0.975
     6   1 H    0.999 --     3 C    0.978
     7   1 H    0.998 --     3 C    0.975
     8   6 C    3.997 --    11 C    1.013     1 C    0.998    13 H    0.979
                            12 H    0.975
     9   1 H    0.998 --     2 C    0.976
    10   1 H    0.998 --     2 C    0.977
    11   6 C    3.928 --     8 C    1.013     3 C    1.012     4 H    0.944
                            18 Br   0.901
    12   1 H    0.998 --     8 C    0.975
    13   1 H    1.000 --     8 C    0.979
    14   1 H    0.999 --     5 C    0.978
    15   1 H    0.998 --     5 C    0.975
    16   1 H    0.999 --     1 C    0.978
    17   1 H    0.998 --     1 C    0.975
    18  35 Br   0.965 --    11 C    0.901
    19   8 O    1.366 --    20 C    1.164
    20   6 C    3.977 --    19 O    1.164    22 H    0.939    21 H    0.937
                            23 H    0.936
    21   1 H    0.986 --    20 C    0.937
    22   1 H    0.987 --    20 C    0.939
    23   1 H    0.986 --    20 C    0.936
 ---------------------------------------------------------------------------

Topologies differ in total number of bonds
Writing topology from bond orders to xtbtopo.mol

molecular dipole:
                 x           y           z       tot (Debye)
 q only:       -5.329      -0.370       7.792
   full:       -4.040      -0.471       7.378      21.414
molecular quadrupole (traceless):
                xx          xy          yy          xz          yz          zz
 q only:      -11.270      -3.735      46.233      65.013       3.348     -34.963
  q+dip:      -15.805      -5.126      45.113      50.031       4.050     -29.308
   full:      -15.144      -5.160      44.712      51.426       4.432     -29.568


           -------------------------------------------------
          | TOTAL ENERGY              -30.580957818238 Eh   |
          | GRADIENT NORM               0.000307580495 Eh/α |
          | HOMO-LUMO GAP               2.987964060117 eV   |
           -------------------------------------------------

------------------------------------------------------------------------
 * finished run on 2021/11/10 at 00:19:10.185     
------------------------------------------------------------------------
 total:
 * wall-time:     0 d,  0 h,  0 min,  0.039 sec
 *  cpu-time:     0 d,  0 h,  0 min,  0.257 sec
 * ratio c/w:     6.525 speedup
 SCF:
 * wall-time:     0 d,  0 h,  0 min,  0.028 sec
 *  cpu-time:     0 d,  0 h,  0 min,  0.175 sec
 * ratio c/w:     6.332 speedup


-------------------------   --------------------
FINAL SINGLE POINT ENERGY       -30.580957818240
-------------------------   --------------------

------------------------------------------------------------------------------
                         ORCA GEOMETRY RELAXATION STEP
------------------------------------------------------------------------------

Reading the OPT-File                    .... done
Getting information on internals        .... done
Copying old internal coords+grads       .... done
Making the new internal coordinates     .... (new redundants).... done
Validating the new internal coordinates .... (new redundants).... done
Calculating the B-matrix                .... done
Calculating the G,G- and P matrices     .... done
Transforming gradient to internals      .... done
Projecting the internal gradient        .... done
Number of atoms                         ....  23
Number of internal coordinates          .... 128
Current Energy                          ....   -30.580957818 Eh
Current gradient norm                   ....     0.000307580 Eh/bohr
Maximum allowed component of the step   ....  0.300
Current trust radius                    ....  0.300
Updating the Hessian (BFGS)             .... done
Forming the augmented Hessian           .... done
Diagonalizing the augmented Hessian     .... done
Last element of RFO vector              ....  0.979884765
Lowest eigenvalues of augmented Hessian:
 -0.000026720  0.000584164  0.014066693  0.014764336  0.014976346
Length of the computed step             ....  0.203660827
The final length of the internal step   ....  0.203660827
Converting the step to cartesian space:
 Initial RMS(Int)=    0.0180012440
Transforming coordinates:
 Iter   0:  RMS(Cart)=    0.1070305066 RMS(Int)=    0.5554039338
 Iter   1:  RMS(Cart)=    0.0095062871 RMS(Int)=    0.0048364186
 Iter   2:  RMS(Cart)=    0.0014937311 RMS(Int)=    0.0004073601
 Iter   3:  RMS(Cart)=    0.0002794246 RMS(Int)=    0.0001293231
 Iter   4:  RMS(Cart)=    0.0000437988 RMS(Int)=    0.0000153678
 Iter   5:  RMS(Cart)=    0.0000082065 RMS(Int)=    0.0000033542
 Iter   6:  RMS(Cart)=    0.0000012894 RMS(Int)=    0.0000005372
 Iter   7:  RMS(Cart)=    0.0000002395 RMS(Int)=    0.0000000836
 Iter   8:  RMS(Cart)=    0.0000000384 RMS(Int)=    0.0000000178
done
Storing new coordinates                 .... done

                                .--------------------.
          ----------------------|Geometry convergence|-------------------------
          Item                value                   Tolerance       Converged
          ---------------------------------------------------------------------
          Energy change      -0.0000123040            0.0000050000      NO
          RMS gradient        0.0000439527            0.0001000000      YES
          MAX gradient        0.0002786489            0.0003000000      YES
          RMS step            0.0180012440            0.0020000000      NO
          MAX step            0.2018380538            0.0040000000      NO
          ........................................................
          Max(Bonds)      0.0015      Max(Angles)    0.26
          Max(Dihed)       11.56      Max(Improp)    0.00
          ---------------------------------------------------------------------

The optimization has not yet converged - more geometry cycles are needed


    ---------------------------------------------------------------------------
                         Redundant Internal Coordinates
                            (Angstroem and degrees)

        Definition                    Value    dE/dq     Step     New-Value
    ----------------------------------------------------------------------------
     1. B(C   1,C   0)                1.5256  0.000035  0.0001    1.5257   
     2. B(C   4,C   2)                1.5271 -0.000017  0.0000    1.5271   
     3. B(C   4,C   1)                1.5257  0.000022  0.0000    1.5257   
     4. B(H   5,C   2)                1.0933  0.000020 -0.0001    1.0932   
     5. B(H   6,C   2)                1.0946  0.000006  0.0000    1.0947   
     6. B(C   7,C   0)                1.5272 -0.000011  0.0002    1.5273   
     7. B(H   8,C   1)                1.0928 -0.000016  0.0001    1.0930   
     8. B(H   9,C   1)                1.0912 -0.000018  0.0001    1.0914   
     9. B(C  10,C   7)                1.5165 -0.000064  0.0001    1.5166   
    10. B(C  10,H   3)                1.1019  0.000021 -0.0001    1.1018   
    11. B(C  10,C   2)                1.5166  0.000008 -0.0002    1.5163   
    12. B(H  11,C   7)                1.0947 -0.000000  0.0000    1.0947   
    13. B(H  12,C   7)                1.0939 -0.000010  0.0000    1.0939   
    14. B(H  13,C   4)                1.0938 -0.000006  0.0001    1.0939   
    15. B(H  14,C   4)                1.0917  0.000023 -0.0001    1.0916   
    16. B(H  15,C   0)                1.0940 -0.000022  0.0001    1.0942   
    17. B(H  16,C   0)                1.0919 -0.000016  0.0001    1.0920   
    18. B(Br 17,C  10)                1.9606  0.000021 -0.0001    1.9605   
    19. B(O  18,H   3)                1.9306  0.000014 -0.0015    1.9291   
    20. B(C  19,O  18)                1.3167  0.000121 -0.0003    1.3164   
    21. B(H  20,C  19)                1.1335 -0.000046  0.0003    1.1338   
    22. B(H  21,C  19)                1.1306  0.000033 -0.0002    1.1304   
    23. B(H  22,C  19)                1.1345 -0.000037  0.0002    1.1347   
    24. A(H  15,C   0,H  16)          108.51  0.000000   -0.02    108.49   
    25. A(C   1,C   0,H  16)          110.70  0.000003   -0.01    110.69   
    26. A(C   7,C   0,H  15)          108.18  0.000002   -0.01    108.17   
    27. A(C   7,C   0,H  16)          109.69  0.000002   -0.00    109.68   
    28. A(C   1,C   0,C   7)          110.36 -0.000029    0.06    110.42   
    29. A(C   1,C   0,H  15)          109.35  0.000023   -0.03    109.32   
    30. A(C   0,C   1,H   8)          109.50 -0.000004    0.01    109.51   
    31. A(C   0,C   1,C   4)          109.77 -0.000001    0.05    109.82   
    32. A(C   4,C   1,H   8)          109.58 -0.000011    0.02    109.59   
    33. A(C   4,C   1,H   9)          109.80  0.000002   -0.03    109.77   
    34. A(H   8,C   1,H   9)          108.38 -0.000002   -0.01    108.37   
    35. A(C   0,C   1,H   9)          109.79  0.000016   -0.04    109.75   
    36. A(C   4,C   2,H   5)          109.91  0.000017   -0.00    109.91   
    37. A(C   4,C   2,C  10)          108.39  0.000029   -0.07    108.32   
    38. A(H   5,C   2,H   6)          108.43 -0.000001    0.02    108.46   
    39. A(H   6,C   2,C  10)          109.86  0.000000    0.01    109.87   
    40. A(C   4,C   2,H   6)          110.29 -0.000022    0.02    110.30   
    41. A(H   5,C   2,C  10)          109.95 -0.000022    0.02    109.97   
    42. A(C  10,H   3,O  18)          171.13  0.000252   -0.26    170.87   
    43. A(H  13,C   4,H  14)          108.56 -0.000013    0.02    108.58   
    44. A(C   1,C   4,H  14)          110.65  0.000034   -0.02    110.62   
    45. A(C   2,C   4,H  13)          108.17  0.000033   -0.03    108.14   
    46. A(C   1,C   4,H  13)          109.35 -0.000012    0.01    109.36   
    47. A(C   1,C   4,C   2)          110.41 -0.000021    0.00    110.41   
    48. A(C   2,C   4,H  14)          109.65 -0.000021    0.02    109.67   
    49. A(H  11,C   7,H  12)          108.38  0.000003    0.01    108.39   
    50. A(C  10,C   7,H  12)          110.00 -0.000026    0.01    110.01   
    51. A(C   0,C   7,H  12)          109.92  0.000024   -0.03    109.88   
    52. A(C  10,C   7,H  11)          109.90 -0.000014    0.03    109.93   
    53. A(C   0,C   7,H  11)          110.27 -0.000024    0.03    110.30   
    54. A(C   0,C   7,C  10)          108.36  0.000036   -0.04    108.32   
    55. A(C   2,C  10,H   3)          110.80 -0.000010    0.00    110.81   
    56. A(H   3,C  10,C   7)          110.80  0.000046   -0.08    110.72   
    57. A(C   7,C  10,Br 17)          109.10  0.000031   -0.00    109.10   
    58. A(H   3,C  10,Br 17)          105.56 -0.000022    0.05    105.61   
    59. A(C   2,C  10,Br 17)          109.10 -0.000040    0.08    109.17   
    60. A(C   2,C  10,C   7)          111.30 -0.000007   -0.04    111.25   
    61. A(H   3,O  18,C  19)          120.12  0.000279   -0.24    119.88   
    62. A(H  21,C  19,H  22)          104.63 -0.000001   -0.00    104.63   
    63. A(H  20,C  19,H  22)          104.44 -0.000036    0.02    104.46   
    64. A(O  18,C  19,H  22)          114.06  0.000050   -0.04    114.02   
    65. A(H  20,C  19,H  21)          104.59 -0.000002    0.01    104.59   
    66. A(O  18,C  19,H  21)          113.85 -0.000044    0.02    113.87   
    67. A(O  18,C  19,H  20)          114.18  0.000028   -0.01    114.17   
    68. D(H   9,C   1,C   0,H  16)     59.13 -0.000008    0.20     59.33   
    69. D(H   9,C   1,C   0,C   7)   -179.25 -0.000023    0.23   -179.02   
    70. D(H   8,C   1,C   0,H  16)    -59.74 -0.000012    0.23    -59.52   
    71. D(H   9,C   1,C   0,H  15)    -60.37 -0.000024    0.24    -60.12   
    72. D(C   4,C   1,C   0,H  15)     60.43 -0.000012    0.21     60.64   
    73. D(C   4,C   1,C   0,C   7)    -58.45 -0.000011    0.20    -58.25   
    74. D(H   8,C   1,C   0,H  15)   -179.24 -0.000029    0.27   -178.97   
    75. D(H   8,C   1,C   0,C   7)     61.88 -0.000028    0.26     62.14   
    76. D(C   4,C   1,C   0,H  16)    179.92  0.000004    0.17    180.09   
    77. D(H  13,C   4,C   1,H   9)     60.28  0.000009   -0.12     60.16   
    78. D(C   1,C   4,C   2,C  10)    -58.72  0.000011   -0.10    -58.83   
    79. D(H  13,C   4,C   2,H   6)   -178.80  0.000009   -0.13   -178.93   
    80. D(H  13,C   4,C   2,C  10)     60.89  0.000004   -0.11     60.78   
    81. D(C   2,C   4,C   1,H   8)    -61.89  0.000022   -0.16    -62.06   
    82. D(C   2,C   4,C   1,H   9)    179.18  0.000029   -0.15    179.03   
    83. D(C   1,C   4,C   2,H   6)     61.59  0.000015   -0.13     61.46   
    84. D(H  13,C   4,C   1,C   0)    -60.50 -0.000011   -0.09    -60.59   
    85. D(C   1,C   4,C   2,H   5)   -178.91  0.000010   -0.09   -179.00   
    86. D(C   2,C   4,C   1,C   0)     58.39  0.000009   -0.11     58.28   
    87. D(H  14,C   4,C   2,C  10)    179.11 -0.000005   -0.09    179.03   
    88. D(H  14,C   4,C   2,H   6)    -60.58 -0.000000   -0.11    -60.69   
    89. D(H  14,C   4,C   2,H   5)     58.92 -0.000005   -0.07     58.85   
    90. D(H  13,C   4,C   1,H   8)    179.21  0.000002   -0.14    179.07   
    91. D(H  14,C   4,C   1,H   9)    -59.25  0.000012   -0.14    -59.38   
    92. D(H  13,C   4,C   2,H   5)    -59.30  0.000003   -0.09    -59.39   
[...]
     20       0.623979  -0.040261  -0.007881   0.058735   0.218061  -0.108156
     21       0.017009   0.005241   0.023902  -0.011770  -0.001117  -0.005511
     22      -0.004471   0.027941   0.045383  -0.008602   0.004269  -0.002615
     23      -0.024492   0.021062   0.014666   0.006892   0.004978   0.005282
     24      -0.003060  -0.381972   0.256495   0.205089   0.048526   0.318936
     25      -0.001852  -0.070991   0.048150   0.039474   0.009822   0.059957
     26       0.006176   0.431502  -0.290708  -0.230336  -0.058357  -0.366463
     27       0.013910  -0.146814   0.111037   0.074112   0.062160   0.271198
     28       0.000541  -0.000797   0.002462   0.001234   0.000542   0.005513
     29       0.005540  -0.083067   0.061358   0.042447   0.028408   0.128947
     30       0.006361  -0.000373   0.001935  -0.000688   0.001254  -0.001934
     31       0.001345   0.000977   0.002209   0.000235  -0.001795  -0.000390
     32      -0.008168   0.001472  -0.001203   0.000331   0.000190   0.002348
     33      -0.229614  -0.060171  -0.272649   0.139336   0.016639   0.069695
     34      -0.049128   0.003515  -0.029000   0.022042   0.005655   0.013110
     35       0.235703   0.073803   0.307619  -0.148874  -0.014734  -0.071801
     36       0.014913  -0.019386  -0.021673  -0.001280  -0.003557  -0.002351
     37       0.101473  -0.363209  -0.541853   0.076753  -0.059756   0.010439
     38       0.077232  -0.321006  -0.487971   0.073054  -0.050118   0.011586
     39       0.118273   0.104131  -0.114911  -0.354059  -0.148826   0.342465
     40       0.022923   0.022857  -0.024754  -0.071483  -0.019825   0.071845
     41      -0.125527  -0.115158   0.124831   0.382741   0.172499  -0.367679
     42      -0.008937  -0.007772   0.011045   0.036807  -0.005045  -0.040917
     43      -0.058503  -0.047702   0.080324   0.283725  -0.149378  -0.354546
     44      -0.042247  -0.034458   0.061827   0.220545  -0.131775  -0.279250
     45       0.058283   0.329559  -0.170845   0.373106   0.044109   0.187564
     46       0.009872   0.049404  -0.034923   0.064489   0.006716   0.026068
     47      -0.062452  -0.353965   0.193344  -0.403385  -0.046688  -0.199093
     48      -0.007901  -0.072665  -0.004763  -0.066329  -0.013364  -0.058391
     49       0.028489   0.297043   0.064346   0.253359   0.059296   0.258368
     50      -0.012717  -0.148689  -0.041477  -0.123883  -0.030227  -0.132650
     51      -0.000059  -0.000048  -0.000039   0.000029  -0.000074   0.000025
     52      -0.000001  -0.000006  -0.000004  -0.000004  -0.000005   0.000004
     53      -0.000029  -0.000032  -0.000025   0.000017  -0.000042   0.000012
     54       0.000127  -0.000057   0.000091  -0.000000   0.000036  -0.000083
     55       0.000034  -0.000004   0.000049  -0.000014  -0.000004  -0.000054
     56      -0.000115   0.000011  -0.000037   0.000044  -0.000075   0.000154
     57       0.000062   0.000073  -0.000024  -0.000020   0.000041  -0.000013
     58      -0.000080   0.000007  -0.000151  -0.000043   0.000124   0.000039
     59      -0.000055   0.000125  -0.000044  -0.000081   0.000106  -0.000029
     60      -0.000646  -0.001432  -0.000094   0.000729  -0.001015   0.000700
     61       0.000042   0.000395   0.000160  -0.000052   0.000231  -0.000147
     62      -0.000685  -0.001152  -0.000059   0.000491  -0.000709   0.000435
     63      -0.000835   0.000745   0.000397  -0.000556   0.000631  -0.000306
     64       0.000005   0.000206   0.000383  -0.000165   0.000190  -0.000191
     65       0.001019  -0.000916  -0.000154   0.000391  -0.000545  -0.000002
     66      -0.000012   0.000060  -0.000222   0.000062   0.000115  -0.000015
     67       0.000296  -0.000417   0.000988   0.000649  -0.001553   0.000214
     68      -0.000048   0.000339   0.000169   0.000106   0.000322  -0.000007
                  66         67         68    
      0      -0.031383  -0.012584  -0.012869
      1       0.040777   0.021569   0.019114
      2       0.002131  -0.004866  -0.003245
      3       0.012767  -0.010979  -0.044690
      4      -0.000957   0.002683   0.000354
      5       0.027647  -0.017437  -0.034486
      6       0.000244  -0.003748   0.001635
      7      -0.005183   0.017296  -0.007150
      8       0.002900  -0.007269   0.003168
      9       0.003903  -0.002878  -0.004180
     10       0.000960   0.000184  -0.000968
     11      -0.004546   0.003423   0.005664
     12      -0.009145   0.027151  -0.013676
     13      -0.006456   0.043042  -0.025142
     14       0.007998   0.004090  -0.007933
     15      -0.011379   0.039569  -0.017573
     16       0.063773  -0.215412   0.089052
     17      -0.035800   0.124750  -0.052111
     18       0.002885   0.022572  -0.005325
     19      -0.002268   0.012171  -0.004749
     20      -0.000873  -0.028685   0.007710
     21       0.000776   0.000881   0.000620
     22       0.011291   0.004171   0.004229
     23       0.006876   0.002123   0.002749
     24       0.207238  -0.123647  -0.171037
     25       0.036690  -0.019585  -0.027181
     26      -0.204666   0.119977   0.147238
     27      -0.373449   0.261327   0.720186
     28      -0.010694   0.009701   0.020408
     29      -0.139329   0.099204   0.283640
     30      -0.000216   0.000137   0.000438
     31      -0.000216   0.000188  -0.000014
     32       0.000805  -0.000528   0.000075
     33      -0.018750  -0.012786  -0.005018
     34       0.001604  -0.000800   0.001487
     35       0.023341   0.014003   0.006828
     36      -0.007551  -0.003426  -0.004013
     37      -0.129295  -0.046330  -0.049975
     38      -0.114490  -0.042395  -0.044895
     39       0.121929  -0.319150   0.140264
     40       0.018033  -0.035675   0.013947
     41      -0.137259   0.371045  -0.166649
     42      -0.000279  -0.027814   0.018284
     43       0.056183  -0.495000   0.302350
     44       0.052177  -0.430508   0.257566
     45       0.295617   0.097486   0.099130
     46       0.081587   0.030571   0.028861
     47      -0.343029  -0.116245  -0.117842
     48       0.104868   0.056240   0.049481
     49      -0.585249  -0.301293  -0.270765
     50       0.330750   0.168676   0.149431
     51      -0.000046   0.000026  -0.000049
     52       0.000006   0.000014  -0.000002
     53      -0.000029   0.000018  -0.000033
     54      -0.000018   0.000021   0.000036
     55       0.000009   0.000032  -0.000002
     56      -0.000007   0.000027  -0.000107
     57       0.000011  -0.000005   0.000029
     58       0.000001  -0.000090   0.000078
     59       0.000103  -0.000088   0.000175
     60      -0.000602   0.000212  -0.001283
     61       0.000067   0.000091   0.000099
     62      -0.000594   0.000200  -0.000940
     63       0.000532  -0.000210   0.000861
     64       0.000081   0.000067   0.000256
     65      -0.000692   0.000271  -0.000769
     66       0.000004  -0.000014  -0.000055
     67       0.000124   0.000906  -0.000944
     68      -0.000031   0.000082   0.000059


-----------
IR SPECTRUM  
-----------

 Mode    freq (cm**-1)   T**2         TX         TY         TZ
-------------------------------------------------------------------
   6:        20.22    0.000000  (  0.000000   0.000000   0.000000)
   7:        30.24    0.000000  (  0.000000   0.000000   0.000000)
   8:        54.52    0.000000  (  0.000000   0.000000   0.000000)
   9:        69.82    0.000000  (  0.000000   0.000000   0.000000)
  10:        93.38    0.000000  (  0.000000   0.000000   0.000000)
  11:       121.87    0.000000  (  0.000000   0.000000   0.000000)
  12:       165.34    0.000000  (  0.000000   0.000000   0.000000)
  13:       214.17    0.000000  (  0.000000   0.000000   0.000000)
  14:       237.34    0.000000  (  0.000000   0.000000   0.000000)
  15:       252.90    0.000000  (  0.000000   0.000000   0.000000)
  16:       326.49    0.000000  (  0.000000   0.000000   0.000000)
  17:       422.98    0.000000  (  0.000000   0.000000   0.000000)
  18:       427.97    0.000000  (  0.000000   0.000000   0.000000)
  19:       503.53    0.000000  (  0.000000   0.000000   0.000000)
  20:       691.49    0.000000  (  0.000000   0.000000   0.000000)
  21:       829.53    0.000000  (  0.000000   0.000000   0.000000)
  22:       861.32    0.000000  (  0.000000   0.000000   0.000000)
  23:       896.85    0.000000  (  0.000000   0.000000   0.000000)
  24:       935.82    0.000000  (  0.000000   0.000000   0.000000)
  25:       941.49    0.000000  (  0.000000   0.000000   0.000000)
  26:       971.41    0.000000  (  0.000000   0.000000   0.000000)
  27:       995.44    0.000000  (  0.000000   0.000000   0.000000)
  28:      1079.39    0.000000  (  0.000000   0.000000   0.000000)
  29:      1089.43    0.000000  (  0.000000   0.000000   0.000000)
  30:      1106.25    0.000000  (  0.000000   0.000000   0.000000)
  31:      1126.53    0.000000  (  0.000000   0.000000   0.000000)
  32:      1139.61    0.000000  (  0.000000   0.000000   0.000000)
  33:      1149.51    0.000000  (  0.000000   0.000000   0.000000)
  34:      1182.69    0.000000  (  0.000000   0.000000   0.000000)
  35:      1184.64    0.000000  (  0.000000   0.000000   0.000000)
  36:      1203.72    0.000000  (  0.000000   0.000000   0.000000)
  37:      1230.50    0.000000  (  0.000000   0.000000   0.000000)
  38:      1243.23    0.000000  (  0.000000   0.000000   0.000000)
  39:      1245.49    0.000000  (  0.000000   0.000000   0.000000)
  40:      1276.54    0.000000  (  0.000000   0.000000   0.000000)
  41:      1307.19    0.000000  (  0.000000   0.000000   0.000000)
  42:      1330.31    0.000000  (  0.000000   0.000000   0.000000)
  43:      1342.58    0.000000  (  0.000000   0.000000   0.000000)
  44:      1348.90    0.000000  (  0.000000   0.000000   0.000000)
  45:      1357.16    0.000000  (  0.000000   0.000000   0.000000)
  46:      1359.95    0.000000  (  0.000000   0.000000   0.000000)
  47:      1474.21    0.000000  (  0.000000   0.000000   0.000000)
  48:      1477.75    0.000000  (  0.000000   0.000000   0.000000)
  49:      1479.91    0.000000  (  0.000000   0.000000   0.000000)
  50:      1483.25    0.000000  (  0.000000   0.000000   0.000000)
  51:      1487.60    0.000000  (  0.000000   0.000000   0.000000)
  52:      1499.63    0.000000  (  0.000000   0.000000   0.000000)
  53:      1516.51    0.000000  (  0.000000   0.000000   0.000000)
  54:      1519.46    0.000000  (  0.000000   0.000000   0.000000)
  55:      2319.96    0.000000  (  0.000000   0.000000   0.000000)
  56:      2351.85    0.000000  (  0.000000   0.000000   0.000000)
  57:      2548.36    0.000000  (  0.000000   0.000000   0.000000)
  58:      2823.56    0.000000  (  0.000000   0.000000   0.000000)
  59:      2939.91    0.000000  (  0.000000   0.000000   0.000000)
  60:      2943.51    0.000000  (  0.000000   0.000000   0.000000)
  61:      2955.93    0.000000  (  0.000000   0.000000   0.000000)
  62:      2957.54    0.000000  (  0.000000   0.000000   0.000000)
  63:      2961.59    0.000000  (  0.000000   0.000000   0.000000)
  64:      2964.78    0.000000  (  0.000000   0.000000   0.000000)
  65:      2970.09    0.000000  (  0.000000   0.000000   0.000000)
  66:      2973.16    0.000000  (  0.000000   0.000000   0.000000)
  67:      2975.99    0.000000  (  0.000000   0.000000   0.000000)
  68:      2984.66    0.000000  (  0.000000   0.000000   0.000000)

The first frequency considered to be a vibration is 6
The total number of vibrations considered is 63


--------------------------
THERMOCHEMISTRY AT 298.15K
--------------------------

Temperature         ... 298.15 K
Pressure            ... 1.00 atm
Total Mass          ... 194.09 AMU

Throughout the following assumptions are being made:
  (1) The electronic state is orbitally nondegenerate
  (2) There are no thermally accessible electronically excited states
  (3) Hindered rotations indicated by low frequency modes are not
      treated as such but are treated as vibrations and this may
      cause some error
  (4) All equations used are the standard statistical mechanics
      equations for an ideal gas
  (5) All vibrations are strictly harmonic

freq.      20.22  E(vib)   ...       0.56 
freq.      30.24  E(vib)   ...       0.55 
freq.      54.52  E(vib)   ...       0.52 
freq.      69.82  E(vib)   ...       0.50 
freq.      93.38  E(vib)   ...       0.47 
freq.     121.87  E(vib)   ...       0.44 
freq.     165.34  E(vib)   ...       0.39 
freq.     214.17  E(vib)   ...       0.34 
freq.     237.34  E(vib)   ...       0.32 
freq.     252.90  E(vib)   ...       0.30 
freq.     326.49  E(vib)   ...       0.24 
freq.     422.98  E(vib)   ...       0.18 
freq.     427.97  E(vib)   ...       0.18 
freq.     503.53  E(vib)   ...       0.14 
freq.     691.49  E(vib)   ...       0.07 
freq.     829.53  E(vib)   ...       0.04 
freq.     861.32  E(vib)   ...       0.04 
freq.     896.85  E(vib)   ...       0.03 
freq.     935.82  E(vib)   ...       0.03 
freq.     941.49  E(vib)   ...       0.03 
freq.     971.41  E(vib)   ...       0.03 
freq.     995.44  E(vib)   ...       0.02 
freq.    1079.39  E(vib)   ...       0.02 
freq.    1089.43  E(vib)   ...       0.02 
freq.    1106.25  E(vib)   ...       0.02 
freq.    1126.53  E(vib)   ...       0.01 
freq.    1139.61  E(vib)   ...       0.01 
freq.    1149.51  E(vib)   ...       0.01 
freq.    1182.69  E(vib)   ...       0.01 
freq.    1184.64  E(vib)   ...       0.01 
freq.    1203.72  E(vib)   ...       0.01 
freq.    1230.50  E(vib)   ...       0.01 
freq.    1243.23  E(vib)   ...       0.01 
freq.    1245.49  E(vib)   ...       0.01 
freq.    1276.54  E(vib)   ...       0.01 
freq.    1307.19  E(vib)   ...       0.01 
freq.    1330.31  E(vib)   ...       0.01 
freq.    1342.58  E(vib)   ...       0.01 
freq.    1348.90  E(vib)   ...       0.01 
freq.    1357.16  E(vib)   ...       0.01 
freq.    1359.95  E(vib)   ...       0.01 
freq.    1474.21  E(vib)   ...       0.00 
freq.    1477.75  E(vib)   ...       0.00 
freq.    1479.91  E(vib)   ...       0.00 
freq.    1483.25  E(vib)   ...       0.00 
freq.    1487.60  E(vib)   ...       0.00 
freq.    1499.63  E(vib)   ...       0.00 
freq.    1516.51  E(vib)   ...       0.00 
freq.    1519.46  E(vib)   ...       0.00 
freq.    2319.96  E(vib)   ...       0.00 
freq.    2351.85  E(vib)   ...       0.00 
freq.    2548.36  E(vib)   ...       0.00 
freq.    2823.56  E(vib)   ...       0.00 
freq.    2939.91  E(vib)   ...       0.00 
freq.    2943.51  E(vib)   ...       0.00 
freq.    2955.93  E(vib)   ...       0.00 
freq.    2957.54  E(vib)   ...       0.00 
freq.    2961.59  E(vib)   ...       0.00 
freq.    2964.78  E(vib)   ...       0.00 
freq.    2970.09  E(vib)   ...       0.00 
freq.    2973.16  E(vib)   ...       0.00 
freq.    2975.99  E(vib)   ...       0.00 
freq.    2984.66  E(vib)   ...       0.00 

------------
INNER ENERGY
------------

The inner energy is: U= E(el) + E(ZPE) + E(vib) + E(rot) + E(trans)
    E(el)   - is the total energy from the electronic structure calculation
              = E(kin-el) + E(nuc-el) + E(el-el) + E(nuc-nuc)
    E(ZPE)  - the the zero temperature vibrational energy from the frequency calculation
    E(vib)  - the the finite temperature correction to E(ZPE) due to population
              of excited vibrational states
    E(rot)  - is the rotational thermal energy
    E(trans)- is the translational thermal energy

Summary of contributions to the inner energy U:
Electronic energy                ...    -30.58097793 Eh
Zero point energy                ...      0.19359181 Eh     121.48 kcal/mol
Thermal vibrational correction   ...      0.00898244 Eh       5.64 kcal/mol
Thermal rotational correction    ...      0.00141627 Eh       0.89 kcal/mol
Thermal translational correction ...      0.00141627 Eh       0.89 kcal/mol
-----------------------------------------------------------------------
Total thermal energy                    -30.37557114 Eh


Summary of corrections to the electronic energy:
(perhaps to be used in another calculation)
Total thermal correction                  0.01181499 Eh       7.41 kcal/mol
Non-thermal (ZPE) correction              0.19359181 Eh     121.48 kcal/mol
-----------------------------------------------------------------------
Total correction                          0.20540680 Eh     128.89 kcal/mol


--------
ENTHALPY
--------

The enthalpy is H = U + kB*T
                kB is Boltzmann's constant
Total free energy                 ...    -30.37557114 Eh 
Thermal Enthalpy correction       ...      0.00094421 Eh       0.59 kcal/mol
-----------------------------------------------------------------------
Total Enthalpy                    ...    -30.37462693 Eh


Note: Only C1 symmetry has been detected, increase convergence thresholds 
      if your molecule has a higher symmetry. Symmetry factor of 1.0 is   
      used for the rotational entropy correction. 
 

Note: Rotational entropy computed according to Herzberg 
Infrared and Raman Spectra, Chapter V,1, Van Nostrand Reinhold, 1945 
Point Group:  C1, Symmetry Number:   1  
Rotational constants in cm-1:     0.033160     0.025580     0.017565 

Vibrational entropy computed according to the QRRHO of S. Grimme
Chem.Eur.J. 2012 18 9955


-------
ENTROPY
-------

The entropy contributions are T*S = T*(S(el)+S(vib)+S(rot)+S(trans))
     S(el)   - electronic entropy
     S(vib)  - vibrational entropy
     S(rot)  - rotational entropy
     S(trans)- translational entropy
The entropies will be listed as mutliplied by the temperature to get
units of energy

Electronic entropy                ...      0.00000000 Eh      0.00 kcal/mol
Vibrational entropy               ...      0.01682753 Eh     10.56 kcal/mol
Rotational entropy                ...      0.01475771 Eh      9.26 kcal/mol
Translational entropy             ...      0.01981043 Eh     12.43 kcal/mol
-----------------------------------------------------------------------
Final entropy term                ...      0.05139567 Eh     32.25 kcal/mol

In case the symmetry of your molecule has not been determined correctly
or in case you have a reason to use a different symmetry number we print 
out the resulting rotational entropy values for sn=1,12 :
 --------------------------------------------------------
|  sn= 1 | S(rot)=       0.01475771 Eh      9.26 kcal/mol|
|  sn= 2 | S(rot)=       0.01410325 Eh      8.85 kcal/mol|
|  sn= 3 | S(rot)=       0.01372042 Eh      8.61 kcal/mol|
|  sn= 4 | S(rot)=       0.01344880 Eh      8.44 kcal/mol|
|  sn= 5 | S(rot)=       0.01323811 Eh      8.31 kcal/mol|
|  sn= 6 | S(rot)=       0.01306597 Eh      8.20 kcal/mol|
|  sn= 7 | S(rot)=       0.01292042 Eh      8.11 kcal/mol|
|  sn= 8 | S(rot)=       0.01279434 Eh      8.03 kcal/mol|
|  sn= 9 | S(rot)=       0.01268313 Eh      7.96 kcal/mol|
|  sn=10 | S(rot)=       0.01258365 Eh      7.90 kcal/mol|
|  sn=11 | S(rot)=       0.01249366 Eh      7.84 kcal/mol|
|  sn=12 | S(rot)=       0.01241151 Eh      7.79 kcal/mol|
 --------------------------------------------------------


-------------------
GIBBS FREE ENERGY
-------------------

The Gibbs free energy is G = H - T*S

Total enthalpy                    ...    -30.37462693 Eh 
Total entropy correction          ...     -0.05139567 Eh    -32.25 kcal/mol
-----------------------------------------------------------------------
Final Gibbs free energy         ...    -30.42602259 Eh

For completeness - the Gibbs free energy minus the electronic energy
G-E(el)                           ...      0.15495534 Eh     97.24 kcal/mol


Total Time for Numerical Frequencies  :       127.779 sec

Timings for individual modules:

Sum of individual times         ...        2.459 sec (=   0.041 min)
Geometry relaxation             ...        1.822 sec (=   0.030 min)  74.1 %
XTB module                      ...        0.637 sec (=   0.011 min)  25.9 %
                             ****ORCA TERMINATED NORMALLY****
TOTAL RUN TIME: 0 days 0 hours 2 minutes 13 seconds 92 msec
