      -----------------------------------------------------------      
     |                   =====================                   |     
     |                           x T B                           |     
     |                   =====================                   |     
     |                         S. Grimme                         |     
     |          Mulliken Center for Theoretical Chemistry        |     
     |                    University of Bonn                     |     
      -----------------------------------------------------------      

   * xtb version 6.4.0 (d4b70c2) compiled by 'ehlert@majestix' on 2021-02-01

   xtb is free software: you can redistribute it and/or modify it under
   the terms of the GNU Lesser General Public License as published by
   the Free Software Foundation, either version 3 of the License, or
   (at your option) any later version.
   
   xtb is distributed in the hope that it will be useful,
   but WITHOUT ANY WARRANTY; without even the implied warranty of
   MERCHANTABILITY or FITNESS FOR A PARTICULAR PURPOSE.  See the
   GNU Lesser General Public License for more details.
   
   Cite this work as:
   * C. Bannwarth, E. Caldeweyher, S. Ehlert, A. Hansen, P. Pracht,
     J. Seibert, S. Spicher, S. Grimme, WIREs Comput. Mol. Sci., 2020,
     e01493. DOI: 10.1002/wcms.1493
   
   for GFN2-xTB:
   * C. Bannwarth, S. Ehlert and S. Grimme., J. Chem. Theory Comput., 2019,
     15, 1652-1671. DOI: 10.1021/acs.jctc.8b01176
   for GFN1-xTB:
   * S. Grimme, C. Bannwarth, P. Shushkov, J. Chem. Theory Comput., 2017,
     13, 1989-2009. DOI: 10.1021/acs.jctc.7b00118
   for GFN0-xTB:
   * P. Pracht, E. Caldeweyher, S. Ehlert, S. Grimme, ChemRxiv, 2019, preprint.
     DOI: 10.26434/chemrxiv.8326202.v1
   for GFN-FF:
   * S. Spicher and S. Grimme, Angew. Chem. Int. Ed., 2020, 59, 15665-15673.
     DOI: 10.1002/anie.202004239
   
   for DFT-D4:
   * E. Caldeweyher, C. Bannwarth and S. Grimme, J. Chem. Phys., 2017,
     147, 034112. DOI: 10.1063/1.4993215
   * E. Caldeweyher, S. Ehlert, A. Hansen, H. Neugebauer, S. Spicher,
     C. Bannwarth and S. Grimme, J. Chem. Phys., 2019, 150, 154122.
     DOI: 10.1063/1.5090222
   * E. Caldeweyher, J.-M. Mewes, S. Ehlert and S. Grimme, Phys. Chem. Chem. Phys.
     2020, 22, 8499-8512. DOI: 10.1039/D0CP00502A
   
   for sTDA-xTB:
   * S. Grimme and C. Bannwarth, J. Chem. Phys., 2016, 145, 054103.
     DOI: 10.1063/1.4959605
   
   in the mass-spec context:
   * V. Asgeirsson, C. Bauer and S. Grimme, Chem. Sci., 2017, 8, 4879.
     DOI: 10.1039/c7sc00601b
   * J. Koopman and S. Grimme, ACS Omega 2019, 4, 12, 15120-15133.
     DOI: 10.1021/acsomega.9b02011
   
   for metadynamics refer to:
   * S. Grimme, J. Chem. Theory Comput., 2019, 155, 2847-2862
     DOI: 10.1021/acs.jctc.9b00143
   
   with help from (in alphabetical order)
   P. Atkinson, C. Bannwarth, F. Bohle, G. Brandenburg, E. Caldeweyher
   M. Checinski, S. Dohm, S. Ehlert, S. Ehrlich, I. Gerasimov, J. Koopman
   C. Lavinge, S. Lehtola, F. März, M. Müller, F. Musil, H. Neugebauer
   J. Pisarek, P. Pracht, J. Seibert, P. Shushkov, S. Spicher, M. Stahn
   T. Strunk, J. Stückrath, T. Rose, and J. Unsleber
   
 * started run on 2021/11/09 at 15:20:32.081     

           -------------------------------------------------
          |                Calculation Setup                |
           -------------------------------------------------

          program call               : xtb bromo-cyclohexane-chair.xyz --gbsa methanol --ohess
          coordinate file            : bromo-cyclohexane-chair.xyz
          omp threads                :                     2
          number of atoms            :                    18
          number of electrons        :                    36
          charge                     :                     0
          spin                       :                   0.0
          first test random number   :      0.32085534663531

   ID    Z sym.   atoms
    1    6 C      1-3, 6, 9, 12
    2    1 H      4, 5, 7, 8, 10, 11, 13-18

           -------------------------------------------------
          |                 G F N 2 - x T B                 |
           -------------------------------------------------

        Reference                      10.1021/acs.jctc.8b01176
      * Hamiltonian:
        H0-scaling (s, p, d)           1.850000    2.230000    2.230000
        zeta-weighting                 0.500000
      * Dispersion:
        s8                             2.700000
        a1                             0.520000
        a2                             5.000000
        s9                             5.000000
      * Repulsion:
        kExp                           1.500000    1.000000
        rExp                           1.000000
      * Coulomb:
        alpha                          2.000000
        third order                    shell-resolved
        anisotropic                    true
        a3                             3.000000
        a5                             4.000000
        cn-shift                       1.200000
        cn-exp                         4.000000
        max-rad                        5.000000

      * Solvation model:               GBSA
        Solvent                        methanol
        Parameter file                 internal GFN2-xTB/GBSA
        Dielectric constant                3.2700E+01
        Reference state                gsolv [1 M gas/solution]
        Free energy shift                  3.3569E-03 Eh       2.1065E+00 kcal/mol
        Temperature                        2.9815E+02 K
        Density                            7.9200E-01 kg/L
        Solvent mass                       3.2040E+01 g/mol
        Interaction kernel             Still
        Born radius scaling (c1)           1.6087E+00
        Born radii integrator          GBOBC
        Born offset                        5.6550E-04 a0       1.0686E-03 AA
        H-bond correction              true
        Ion screening                  false
        Surface tension                    1.0000E-05 Eh       1.5569E+01 dyn/cm
        Grid points                               230 per atom
q/qsh data taken from xtbrestart
CAMM data taken from xtbrestart

          ...................................................
          :                      SETUP                      :
          :.................................................:
          :  # basis functions                  36          :
          :  # atomic orbitals                  36          :
          :  # shells                           24          :
          :  # electrons                        36          :
          :  max. iterations                   250          :
          :  Hamiltonian                  GFN2-xTB          :
          :  restarted?                       true          :
          :  GBSA solvation                   true          :
          :  PC potential                    false          :
          :  electronic temp.          300.0000000     K    :
          :  accuracy                    1.0000000          :
          :  -> integral cutoff          0.2500000E+02      :
          :  -> integral neglect         0.1000000E-07      :
          :  -> SCF convergence          0.1000000E-05 Eh   :
          :  -> wf. convergence          0.1000000E-03 e    :
          :  Broyden damping             0.4000000          :
          ...................................................

 iter      E             dE          RMSdq      gap      omega  full diag
   1    -19.2719962 -0.192720E+02  0.192E-08   13.66       0.0  T
   2    -19.2719962 -0.213163E-13  0.964E-09   13.66  100000.0  T
   3    -19.2719962  0.710543E-14  0.519E-09   13.66  100000.0  T

   *** convergence criteria satisfied after 3 iterations ***

         #    Occupation            Energy/Eh            Energy/eV
      -------------------------------------------------------------
         1        2.0000           -0.6285884             -17.1048
       ...           ...                  ...                  ...
        12        2.0000           -0.4608887             -12.5414
        13        2.0000           -0.4608456             -12.5402
        14        2.0000           -0.4335563             -11.7977
        15        2.0000           -0.4335527             -11.7976
        16        2.0000           -0.4162211             -11.3260
        17        2.0000           -0.4086993             -11.1213
        18        2.0000           -0.4086486             -11.1199 (HOMO)
        19                          0.0932363               2.5371 (LUMO)
        20                          0.1022565               2.7825
        21                          0.1023582               2.7853
        22                          0.1160052               3.1567
        23                          0.1161943               3.1618
       ...                                ...                  ...
        36                          0.3090571               8.4099
      -------------------------------------------------------------
                  HL-Gap            0.5018849 Eh           13.6570 eV
             Fermi-level           -0.1577061 Eh           -4.2914 eV

 SCC (total)                   0 d,  0 h,  0 min,  0.011 sec
 SCC setup                      ...        0 min,  0.001 sec (  5.355%)
 Dispersion                     ...        0 min,  0.000 sec (  1.379%)
 classical contributions        ...        0 min,  0.000 sec (  0.289%)
 integral evaluation            ...        0 min,  0.002 sec ( 20.960%)
 iterations                     ...        0 min,  0.003 sec ( 23.336%)
 molecular gradient             ...        0 min,  0.005 sec ( 46.727%)
 printout                       ...        0 min,  0.000 sec (  1.507%)

         :::::::::::::::::::::::::::::::::::::::::::::::::::::
         ::                     SUMMARY                     ::
         :::::::::::::::::::::::::::::::::::::::::::::::::::::
         :: total energy             -18.991582442448 Eh    ::
         :: total w/o Gsasa/hb       -18.986712261317 Eh    ::
         :: gradient norm              0.000185235484 Eh/a0 ::
         :: HOMO-LUMO gap             13.656982613102 eV    ::
         ::.................................................::
         :: SCC energy               -19.271996200271 Eh    ::
         :: -> isotropic ES            0.002891573821 Eh    ::
         :: -> anisotropic ES          0.005138058680 Eh    ::
         :: -> anisotropic XC          0.010989795759 Eh    ::
         :: -> dispersion             -0.011250112289 Eh    ::
         :: -> Gsolv                  -0.004878415697 Eh    ::
         ::    -> Gborn               -0.000008234566 Eh    ::
         ::    -> Gsasa               -0.008010584681 Eh    ::
         ::    -> Ghb                 -0.000216525973 Eh    ::
         ::    -> Gshift               0.003356929523 Eh    ::
         :: repulsion energy           0.280385489555 Eh    ::
         :: add. restraining           0.000000000000 Eh    ::
         :: total charge              -0.000000000000 e     ::
         :::::::::::::::::::::::::::::::::::::::::::::::::::::

      ----------------------------------------------------------- 
     |                   =====================                   |
     |                        A N C O P T                        |
     |                   =====================                   |
     |               Approximate Normal Coordinate               |
     |                Rational Function Optimizer                |
      ----------------------------------------------------------- 

          ...................................................
          :                      SETUP                      :
          :.................................................:
          :   optimization level            normal          :
          :   max. optcycles                   200          :
          :   ANC micro-cycles                  20          :
          :   degrees of freedom                48          :
          :.................................................:
          :   RF solver                   davidson          :
          :   write xtbopt.log                true          :
          :   linear?                        false          :
          :   energy convergence         0.5000000E-05 Eh   :
          :   grad. convergence          0.1000000E-02 Eh/α :
          :   maximium RF displ.         1.0000000          :
          :   Hlow (freq-cutoff)         0.1000000E-01      :
          :   Hmax (freq-cutoff)         5.0000000          :
          :   S6 in model hess.         20.0000000          :
          ...................................................

generating ANC from model Hessian ...
Using Lindh-Hessian (1995)
 Shifting diagonal of input Hessian by   1.181348568993473E-003
 Lowest  eigenvalues of input Hessian
    0.000000    0.000000    0.000000    0.000000    0.000000    0.000000
    0.010000    0.010000    0.019168    0.020461    0.024909    0.024916
    0.051260    0.052448    0.052462    0.052944    0.052945    0.055881
 Highest eigenvalues
    1.195386    1.195522    1.215850    1.223102    1.275500    1.275698
 

........................................................................
.............................. CYCLE    1 ..............................
........................................................................
   1    -19.2719962 -0.192720E+02  0.560E-10   13.66       0.0  T
   2    -19.2719962 -0.355271E-14  0.325E-10   13.66  100000.0  T
   3    -19.2719962  0.355271E-14  0.318E-11   13.66  100000.0  T
     SCC iter.                  ...        0 min,  0.002 sec
     gradient                   ...        0 min,  0.003 sec
 * total energy  :   -18.9915824 Eh     change        0.1421085E-13 Eh
   gradient norm :     0.0001850 Eh/α   predicted     0.0000000E+00 (-100.00%)
   displ. norm   :     0.0052158 α      lambda       -0.4091939E-06
   maximum displ.:     0.0027308 α      in ANC's #1, #5, #3, ...

........................................................................
.............................. CYCLE    2 ..............................
........................................................................
   1    -19.2720199 -0.192720E+02  0.451E-03   13.66       0.0  T
   2    -19.2720199 -0.789939E-09  0.266E-03   13.66       8.9  T
   3    -19.2720199 -0.190685E-09  0.104E-04   13.66     226.1  T
   4    -19.2720199 -0.684075E-10  0.508E-05   13.66     463.9  T
     SCC iter.                  ...        0 min,  0.004 sec
     gradient                   ...        0 min,  0.005 sec
 * total energy  :   -18.9915825 Eh     change       -0.7163099E-07 Eh
   gradient norm :     0.0001962 Eh/α   predicted    -0.2046090E-06 ( 185.64%)
   displ. norm   :     0.0021831 α      lambda       -0.1766133E-06
   maximum displ.:     0.0011543 α      in ANC's #5, #1, #16, ...

   *** GEOMETRY OPTIMIZATION CONVERGED AFTER 2 ITERATIONS ***

------------------------------------------------------------------------
 total energy gain   :        -0.0000001 Eh       -0.0000 kcal/mol
 total RMSD          :         0.0012294 a0        0.0007 Å
 total power (kW/mol):        -0.0000940 (step)   -0.0046 (real)
------------------------------------------------------------------------

 ANCopt (total)                0 d,  0 h,  0 min,  0.041 sec
 optimizer setup                ...        0 min,  0.000 sec (  0.262%)
 model hessian                  ...        0 min,  0.019 sec ( 45.909%)
 ANC generation                 ...        0 min,  0.000 sec (  0.871%)
 coordinate transformation      ...        0 min,  0.000 sec (  0.069%)
 single point calculation       ...        0 min,  0.020 sec ( 49.195%)
 optimization log               ...        0 min,  0.000 sec (  0.799%)
 hessian update                 ...        0 min,  0.000 sec (  0.056%)
 rational function              ...        0 min,  0.001 sec (  1.889%)

================
 final structure:
================
18
 xtb: 6.4.0 (d4b70c2)
C        -1.97303198034693   -0.04721011543960   -0.65058165179910
C        -1.22618006662314   -0.71643158311656    0.50023268296980
C         0.02136869360319    1.41576369997666    0.93077528060205
H        -1.62555878473300    2.56888303508462    0.16596904972554
H        -0.09789811218396    2.85758613524752   -0.67177215673310
C        -0.83316084285084    0.31532063425406    1.55418071213897
H         0.95107110000658    0.98175648908027    0.55458675023190
H         0.28157839106706    2.15884474230656    1.68808190362391
C        -1.11869987973182    1.05347913905270   -1.27390754467584
H        -1.85276035882388   -1.48920381271209    0.95152691259220
H        -0.32520892556987   -1.19941653666381    0.11394348244094
C        -0.72492465789587    2.08526933349907   -0.22024755118255
H        -1.66927624059219    1.53899851790059   -2.08301257111746
H        -0.21552058429048    0.61145249440815   -1.70182627341057
H        -0.28323719676903   -0.16994679877935    2.36388881998679
H        -1.73660160457904    0.75759417873344    1.98126169979598
H        -2.23310127449217   -0.79031469970742   -1.40794099289598
H        -2.90283777411305    0.38649424180011   -0.27424912181732
 
 Bond Distances (Angstroems)
 ---------------------------
C1-C2=1.5264         C1-C9=1.5264         C1-H17=1.0924        C1-H18=1.0928        C2-C1=1.5264         C2-C6=1.5264         
C2-H10=1.0924        C2-H11=1.0928        C3-C6=1.5264         C3-H7=1.0928         C3-H8=1.0924         C3-C12=1.5264        
H4-C12=1.0928        H5-C12=1.0925        C6-C2=1.5264         C6-C3=1.5264         C6-H15=1.0925        C6-H16=1.0928        
H7-C3=1.0928         H8-C3=1.0924         C9-C1=1.5264         C9-C12=1.5264        C9-H13=1.0925        C9-H14=1.0928        
H10-C2=1.0924        H11-C2=1.0928        C12-C3=1.5264        C12-H4=1.0928        C12-H5=1.0925        C12-C9=1.5264        
H13-C9=1.0925        H14-C9=1.0928        H15-C6=1.0925        H16-C6=1.0928        H17-C1=1.0924        H18-C1=1.0928        
 C  H  Rav=1.0926 sigma=0.0002  Rmin=1.0924  Rmax=1.0928    12
 C  C  Rav=1.5264 sigma=0.0000  Rmin=1.5264  Rmax=1.5264     6
 
 selected bond angles (degree)
 --------------------
C9-C1-C2=110.50                H17-C1-C2=109.93               H17-C1-C9=109.92               H18-C1-C2=109.31               
H18-C1-C9=109.31               H18-C1-H17=107.83              C6-C2-C1=110.50                H10-C2-C1=109.93               
H10-C2-C6=109.91               H11-C2-C1=109.31               H11-C2-C6=109.30               H11-C2-H10=107.83              
H7-C3-C6=109.30                H8-C3-C6=109.91                H8-C3-H7=107.83                C12-C3-C6=110.52               
C12-C3-H7=109.30               C12-C3-H8=109.93               C3-C6-C2=110.45                H15-C6-C2=109.95               
H15-C6-C3=109.95               H16-C6-C2=109.30               H16-C6-C3=109.31               H16-C6-H15=107.83              
C12-C9-C1=110.48               H13-C9-C1=109.93               H13-C9-C12=109.93              H14-C9-C1=109.32               
H14-C9-C12=109.30              H14-C9-H13=107.83              
 
 selected dihedral angles (degree)
 ---------------------------------
C6-C2-C1-C9= 57.44            C6-C2-C1-H17=178.93           C6-C2-C1-H18=297.11           H10-C2-C1-C9=178.93           
H10-C2-C1-H17=300.43          H10-C2-C1-H18= 58.60          H11-C2-C1-C9=297.11           H11-C2-C1-H17= 58.61          
H11-C2-C1-H18=176.78          C3-C6-C2-C1=302.57            C3-C6-C2-H10=181.07           C3-C6-C2-H11= 62.90           
H15-C6-C2-C1=181.06           H15-C6-C2-H10= 59.55          H15-C6-C2-H11=301.39          H16-C6-C2-C1= 62.88           
H16-C6-C2-H10=301.37          H16-C6-C2-H11=183.20          C2-C6-C3-H7=297.08            C2-C6-C3-H8=178.93            
C2-C6-C3-C12= 57.42           H15-C6-C3-H7= 58.60           H15-C6-C3-H8=300.44           H15-C6-C3-C12=178.93          
H16-C6-C3-H7=176.79           H16-C6-C3-H8= 58.63           H16-C6-C3-C12=297.12          C12-C9-C1-C2=302.61           
C12-C9-C1-H17=181.10          C12-C9-C1-H18= 62.94          H13-C9-C1-C2=181.11           H13-C9-C1-H17= 59.60          
H13-C9-C1-H18=301.44          H14-C9-C1-C2= 62.93           H14-C9-C1-H17=301.42          H14-C9-C1-H18=183.26          
           -------------------------------------------------
          |                Final Singlepoint                |
           -------------------------------------------------

          ...................................................
          :                      SETUP                      :
          :.................................................:
          :  # basis functions                  36          :
          :  # atomic orbitals                  36          :
          :  # shells                           24          :
          :  # electrons                        36          :
          :  max. iterations                   250          :
          :  Hamiltonian                  GFN2-xTB          :
          :  restarted?                      false          :
          :  GBSA solvation                   true          :
          :  PC potential                    false          :
          :  electronic temp.          300.0000000     K    :
          :  accuracy                    1.0000000          :
          :  -> integral cutoff          0.2500000E+02      :
          :  -> integral neglect         0.1000000E-07      :
          :  -> SCF convergence          0.1000000E-05 Eh   :
          :  -> wf. convergence          0.1000000E-03 e    :
          :  Broyden damping             0.4000000          :
          ...................................................

 iter      E             dE          RMSdq      gap      omega  full diag
   1    -19.2720199 -0.192720E+02  0.775E-06   13.66       0.0  T
   2    -19.2720199 -0.135003E-12  0.456E-06   13.66    5171.1  T
   3    -19.2720199  0.000000E+00  0.208E-06   13.66   11344.4  T

   *** convergence criteria satisfied after 3 iterations ***

         #    Occupation            Energy/Eh            Energy/eV
      -------------------------------------------------------------
         1        2.0000           -0.6285867             -17.1047
       ...           ...                  ...                  ...
        12        2.0000           -0.4608994             -12.5417
        13        2.0000           -0.4608410             -12.5401
        14        2.0000           -0.4335529             -11.7976
        15        2.0000           -0.4335375             -11.7972
        16        2.0000           -0.4161819             -11.3249
        17        2.0000           -0.4087258             -11.1220
        18        2.0000           -0.4086588             -11.1202 (HOMO)
        19                          0.0932139               2.5365 (LUMO)
        20                          0.1022709               2.7829
        21                          0.1024025               2.7865
        22                          0.1159327               3.1547
        23                          0.1161744               3.1613
       ...                                ...                  ...
        36                          0.3090233               8.4090
      -------------------------------------------------------------
                  HL-Gap            0.5018727 Eh           13.6567 eV
             Fermi-level           -0.1577224 Eh           -4.2918 eV

 SCC (total)                   0 d,  0 h,  0 min,  0.010 sec
 SCC setup                      ...        0 min,  0.001 sec ( 10.347%)
 Dispersion                     ...        0 min,  0.000 sec (  0.944%)
 classical contributions        ...        0 min,  0.000 sec (  0.283%)
 integral evaluation            ...        0 min,  0.002 sec ( 20.603%)
 iterations                     ...        0 min,  0.003 sec ( 31.459%)
 molecular gradient             ...        0 min,  0.003 sec ( 31.815%)
 printout                       ...        0 min,  0.000 sec (  4.050%)

         :::::::::::::::::::::::::::::::::::::::::::::::::::::
         ::                     SUMMARY                     ::
         :::::::::::::::::::::::::::::::::::::::::::::::::::::
         :: total energy             -18.991582514080 Eh    ::
         :: total w/o Gsasa/hb       -18.986712126655 Eh    ::
         :: gradient norm              0.000196422190 Eh/a0 ::
         :: HOMO-LUMO gap             13.656651346411 eV    ::
         ::.................................................::
         :: SCC energy               -19.272019899587 Eh    ::
         :: -> isotropic ES            0.002891622085 Eh    ::
         :: -> anisotropic ES          0.005137426688 Eh    ::
         :: -> anisotropic XC          0.010987692111 Eh    ::
         :: -> dispersion             -0.011249784876 Eh    ::
         :: -> Gsolv                  -0.004878664691 Eh    ::
         ::    -> Gborn               -0.000008277266 Eh    ::
         ::    -> Gsasa               -0.008010777612 Eh    ::
         ::    -> Ghb                 -0.000216539336 Eh    ::
         ::    -> Gshift               0.003356929523 Eh    ::
         :: repulsion energy           0.280409112850 Eh    ::
         :: add. restraining           0.000000000000 Eh    ::
         :: total charge               0.000000000000 e     ::
         :::::::::::::::::::::::::::::::::::::::::::::::::::::

           ------------------------------------------------- 
          |                Numerical Hessian                |
           ------------------------------------------------- 
step length          :   0.00500
SCC accuracy         :   0.30000
Hessian scale factor :   1.00000
frozen atoms in %    :   0.00000    0
RMS gradient         :   0.00020
estimated CPU  time      0.04 min
estimated wall time      0.02 min

writing file <hessian>.

 projected vibrational frequencies (cm⁻¹)
eigval :       -0.00    -0.00    -0.00    -0.00     0.00     0.00
eigval :      230.31   231.37   373.82   417.89   418.95   538.85
eigval :      822.17   823.26   868.23   931.42   932.27   936.93
eigval :      937.46  1011.89  1064.33  1095.07  1095.83  1124.61
eigval :     1159.67  1177.77  1248.32  1248.90  1250.52  1251.06
eigval :     1331.21  1345.97  1346.61  1349.89  1359.25  1359.48
eigval :     1481.19  1481.78  1489.98  1490.49  1491.19  1507.35
eigval :     2951.75  2952.24  2952.59  2957.23  2958.08  2961.62
eigval :     2970.10  2970.67  2973.66  2974.79  2975.71  2982.76
           -------------------------------------------------
          |                Property Printout                |
           -------------------------------------------------

    * Orbital Energies and Occupations

         #    Occupation            Energy/Eh            Energy/eV
      -------------------------------------------------------------
         1        2.0000           -0.6285867             -17.1047
       ...           ...                  ...                  ...
         6        2.0000           -0.5448111             -14.8251
         7        2.0000           -0.5182514             -14.1023
         8        2.0000           -0.4945254             -13.4567
         9        2.0000           -0.4945020             -13.4561
        10        2.0000           -0.4904317             -13.3453
        11        2.0000           -0.4653906             -12.6639
        12        2.0000           -0.4608994             -12.5417
        13        2.0000           -0.4608410             -12.5401
        14        2.0000           -0.4335529             -11.7976
        15        2.0000           -0.4335375             -11.7972
        16        2.0000           -0.4161819             -11.3249
        17        2.0000           -0.4087258             -11.1220
        18        2.0000           -0.4086588             -11.1202 (HOMO)
        19                          0.0932139               2.5365 (LUMO)
        20                          0.1022709               2.7829
        21                          0.1024025               2.7865
        22                          0.1159327               3.1547
        23                          0.1161744               3.1613
        24                          0.1200698               3.2673
        25                          0.1418489               3.8599
        26                          0.1877675               5.1094
        27                          0.1878092               5.1105
        28                          0.1932395               5.2583
        29                          0.2010697               5.4714
       ...                                ...                  ...
        36                          0.3090233               8.4090
      -------------------------------------------------------------
                  HL-Gap            0.5018727 Eh           13.6567 eV
             Fermi-level           -0.1577224 Eh           -4.2918 eV

     #   Z          covCN         q      C6AA      α(0)
     1   6 C        3.805    -0.057    21.590     6.615
     2   6 C        3.805    -0.057    21.590     6.615
     3   6 C        3.805    -0.057    21.590     6.615
     4   1 H        0.924     0.031     2.573     2.509
     5   1 H        0.924     0.026     2.647     2.544
     6   6 C        3.805    -0.057    21.590     6.615
     7   1 H        0.924     0.031     2.573     2.509
     8   1 H        0.924     0.026     2.647     2.544
     9   6 C        3.805    -0.057    21.590     6.615
    10   1 H        0.924     0.026     2.648     2.545
    11   1 H        0.924     0.031     2.573     2.508
    12   6 C        3.805    -0.057    21.590     6.615
    13   1 H        0.924     0.026     2.647     2.544
    14   1 H        0.924     0.031     2.573     2.509
    15   1 H        0.924     0.026     2.647     2.544
    16   1 H        0.924     0.031     2.573     2.509
    17   1 H        0.924     0.026     2.647     2.544
    18   1 H        0.924     0.031     2.573     2.509

 Mol. C6AA /au·bohr⁶  :       2227.189853
 Mol. C8AA /au·bohr⁸  :      47105.986830
 Mol. α(0) /au        :         70.006630


Wiberg/Mayer (AO) data.
largest (>0.10) Wiberg bond orders for each atom

 ---------------------------------------------------------------------------
     #   Z sym  total        # sym  WBO       # sym  WBO       # sym  WBO
 ---------------------------------------------------------------------------
     1   6 C    3.998 --     9 C    1.009     2 C    1.009    17 H    0.978
                            18 H    0.978
     2   6 C    3.998 --     6 C    1.009     1 C    1.009    10 H    0.978
                            11 H    0.978
     3   6 C    3.998 --     6 C    1.009    12 C    1.009     8 H    0.978
                             7 H    0.978
     4   1 H    0.999 --    12 C    0.978
     5   1 H    0.999 --    12 C    0.978
     6   6 C    3.998 --     2 C    1.009     3 C    1.009    15 H    0.978
                            16 H    0.978
     7   1 H    0.999 --     3 C    0.978
     8   1 H    0.999 --     3 C    0.978
     9   6 C    3.998 --    12 C    1.009     1 C    1.009    13 H    0.978
                            14 H    0.978
    10   1 H    0.999 --     2 C    0.978
    11   1 H    0.999 --     2 C    0.978
    12   6 C    3.998 --     9 C    1.009     3 C    1.009     5 H    0.978
                             4 H    0.978
    13   1 H    0.999 --     9 C    0.978
    14   1 H    0.999 --     9 C    0.978
    15   1 H    0.999 --     6 C    0.978
    16   1 H    0.999 --     6 C    0.978
    17   1 H    0.999 --     1 C    0.978
    18   1 H    0.999 --     1 C    0.978
 ---------------------------------------------------------------------------

Topologies differ in total number of bonds
Writing topology from bond orders to xtbtopo.mol

molecular dipole:
                 x           y           z       tot (Debye)
 q only:       -0.000      -0.000      -0.000
   full:       -0.000       0.000      -0.000       0.000
molecular quadrupole (traceless):
                xx          xy          yy          xz          yz          zz
 q only:       -0.017       0.016       0.007       0.015      -0.007       0.010
  q+dip:        0.848      -0.811      -0.380      -0.708       0.350      -0.468
   full:        0.435      -0.416      -0.195      -0.363       0.179      -0.240

           -------------------------------------------------
          |                Geometry Summary                 |
           -------------------------------------------------

      molecular mass/u    :       84.1597044
   center of mass at/Å    :       -0.9757685       0.6843747       0.1400722
  moments of inertia/u·Å² :        0.1157730E+03   0.1158319E+03   0.2015137E+03
rotational constants/cm⁻¹ :        0.1456094E+00   0.1455353E+00   0.8365502E-01

 * 18 selected distances

     #   Z          #   Z                                           value/Å
     1   6 C        2   6 C                                       1.5264399
     2   6 C        6   6 C                                       1.5263627
     3   6 C        6   6 C                                       1.5263781
     3   6 C        7   1 H                                       1.0928068
     3   6 C        8   1 H                                       1.0924248 (min)
     1   6 C        9   6 C                                       1.5264126
     2   6 C       10   1 H                                       1.0924497
     2   6 C       11   1 H                                       1.0928142
     3   6 C       12   6 C                                       1.5264485 (max)
     4   1 H       12   6 C                                       1.0927888
     5   1 H       12   6 C                                       1.0924788
     9   6 C       12   6 C                                       1.5263844
     9   6 C       13   1 H                                       1.0924808
     9   6 C       14   1 H                                       1.0928105
     6   6 C       15   1 H                                       1.0924869
     6   6 C       16   1 H                                       1.0927988
     1   6 C       17   1 H                                       1.0924439
     1   6 C       18   1 H                                       1.0928241

 * 2 distinct bonds (by element types)

   Z      Z             #   av. dist./Å        max./Å        min./Å
   1 H    6 C          12     1.0926340     1.0928241     1.0924248
   6 C    6 C           6     1.5264044     1.5264485     1.5263627

           -------------------------------------------------
          |               Frequency Printout                |
           -------------------------------------------------
 projected vibrational frequencies (cm⁻¹)
eigval :       -0.00    -0.00    -0.00    -0.00     0.00     0.00
eigval :      230.31   231.37   373.82   417.89   418.95   538.85
eigval :      822.17   823.26   868.23   931.42   932.27   936.93
eigval :      937.46  1011.89  1064.33  1095.07  1095.83  1124.61
eigval :     1159.67  1177.77  1248.32  1248.90  1250.52  1251.06
eigval :     1331.21  1345.97  1346.61  1349.89  1359.25  1359.48
eigval :     1481.19  1481.78  1489.98  1490.49  1491.19  1507.35
eigval :     2951.75  2952.24  2952.59  2957.23  2958.08  2961.62
eigval :     2970.10  2970.67  2973.66  2974.79  2975.71  2982.76
 reduced masses (amu)
   1:  9.97   2:  8.91   3:  9.61   4:  9.65   5:  9.24   6: 10.34   7:  6.25   8:  6.25
   9:  5.45  10:  9.15  11:  9.16  12:  4.40  13:  4.42  14:  4.42  15:  9.45  16:  4.69
  17:  4.81  18:  6.69  19:  6.42  20:  7.87  21:  1.02  22:  5.93  23:  5.95  24:  5.32
  25:  3.87  26:  7.73  27:  3.26  28:  3.23  29:  3.87  30:  3.88  31:  3.75  32:  4.71
  33:  4.70  34:  4.83  35:  5.35  36:  5.35  37:  1.88  38:  1.88  39:  2.02  40:  2.02
  41:  1.97  42:  2.04  43:  1.94  44:  1.94  45:  1.87  46:  1.98  47:  2.00  48:  1.78
  49:  1.51  50:  1.52  51:  1.69  52:  1.52  53:  1.50  54:  1.52
 IR intensities (km·mol⁻¹)
   1:  0.00   2:  0.00   3:  0.00   4:  0.00   5:  0.00   6:  0.00   7:  0.12   8:  0.12
   9:  0.00  10:  0.00  11:  0.00  12:  4.22  13:  0.00  14:  0.00  15:  0.00  16:  6.29
  17:  6.16  18:  0.16  19:  0.31  20:  4.51  21:  0.00  22:  0.00  23:  0.00  24:  0.00
  25:  0.00  26:  0.00  27:  0.00  28:  0.00  29:  2.10  30:  2.14  31:  0.00  32: 12.77
  33: 12.80  34:  0.00  35:  0.00  36:  0.00  37:  0.00  38:  0.00  39:  0.35  40:  0.37
  41:  0.44  42:  0.00  43: 61.78  44: 62.97  45:  1.41  46:  0.01  47:  0.01  48: 74.32
  49:  0.05  50:  0.26  51:410.60  52:263.47  53:251.65  54:  0.01
 Raman intensities (amu)
   1:  0.00   2:  0.00   3:  0.00   4:  0.00   5:  0.00   6:  0.00   7:  0.00   8:  0.00
   9:  0.00  10:  0.00  11:  0.00  12:  0.00  13:  0.00  14:  0.00  15:  0.00  16:  0.00
  17:  0.00  18:  0.00  19:  0.00  20:  0.00  21:  0.00  22:  0.00  23:  0.00  24:  0.00
  25:  0.00  26:  0.00  27:  0.00  28:  0.00  29:  0.00  30:  0.00  31:  0.00  32:  0.00
  33:  0.00  34:  0.00  35:  0.00  36:  0.00  37:  0.00  38:  0.00  39:  0.00  40:  0.00
  41:  0.00  42:  0.00  43:  0.00  44:  0.00  45:  0.00  46:  0.00  47:  0.00  48:  0.00
  49:  0.00  50:  0.00  51:  0.00  52:  0.00  53:  0.00  54:  0.00
 output can be read by thermo (or use thermo option).
 writing <g98.out> molden fake output.
 recommended (thermochemical) frequency scaling factor: 1.0
           -------------------------------------------------
          |             Thermodynamic Functions             |
           -------------------------------------------------

Refinement of some symmetry elements was terminated before convergence was reached.
Some symmetry elements may remain unidentified.
Molecule has the following symmetry elements: (i) (C3) 3*(C2) (S6) 3*(sigma) 
It seems to be the D3d point group
d3d symmetry found (for desy threshold:  0.10E+00) used in thermo

          ...................................................
          :                      SETUP                      :
          :.................................................:
          :  # frequencies                          48      :
          :  # imaginary freq.                       0      :
          :  linear?                             false      :
          :  only rotor calc.                    false      :
          :  symmetry                              d3d      :
          :  rotational number                       6      :
          :  scaling factor                  1.0000000      :
          :  rotor cutoff                   50.0000000 cm⁻¹ :
          :  imag. cutoff                  -20.0000000 cm⁻¹ :
          :.................................................:

    mode    ω/cm⁻¹     T·S(HO)/kcal·mol⁻¹    T·S(FR)/kcal·mol⁻¹   T·S(vib)
   ------------------------------------------------------------------------
       1    230.31    -0.55949 ( 99.78%)    -0.60392 (  0.22%)    -0.55958
       2    231.37    -0.55703 ( 99.78%)    -0.60256 (  0.22%)    -0.55713
   ------------------------------------------------------------------------

   temp. (K)  partition function   enthalpy   heat capacity  entropy
                                   cal/mol     cal/K/mol   cal/K/mol   J/K/mol
 298.15  VIB   4.45                 1791.508     16.608      8.978
         ROT  0.209E+05              888.752      2.981     22.752
         INT  0.932E+05             2680.260     19.589     31.730
         TR   0.747E+27             1481.254      4.968     39.186
         TOT                        4161.5140    24.5570    70.9163   296.7136

       T/K    H(0)-H(T)+PV         H(T)/Eh          T*S/Eh         G(T)/Eh
   ------------------------------------------------------------------------
    298.15    0.663179E-02    0.174775E+00    0.336946E-01    0.141081E+00
   ------------------------------------------------------------------------

         :::::::::::::::::::::::::::::::::::::::::::::::::::::
         ::                  THERMODYNAMIC                  ::
         :::::::::::::::::::::::::::::::::::::::::::::::::::::
         :: total free energy         -18.850501746629 Eh   ::
         ::.................................................::
         :: total energy              -18.991582514204 Eh   ::
         :: zero point energy           0.168143574823 Eh   ::
         :: G(RRHO) w/o ZPVE           -0.027062807248 Eh   ::
         :: G(RRHO) contrib.            0.141080767575 Eh   ::
         :::::::::::::::::::::::::::::::::::::::::::::::::::::

optimized geometry written to: xtbopt.xyz


           -------------------------------------------------
          | TOTAL ENERGY              -18.991582514204 Eh   |
          | TOTAL ENTHALPY            -18.816807144711 Eh   |
          | TOTAL FREE ENERGY         -18.850501746629 Eh   |
          | GRADIENT NORM               0.000196422574 Eh/α |
          | HOMO-LUMO GAP              13.656651363613 eV   |
           -------------------------------------------------

------------------------------------------------------------------------
 * finished run on 2021/11/09 at 15:20:32.668     
------------------------------------------------------------------------
 total:
 * wall-time:     0 d,  0 h,  0 min,  0.587 sec
 *  cpu-time:     0 d,  0 h,  0 min,  1.126 sec
 * ratio c/w:     1.917 speedup
 SCF:
 * wall-time:     0 d,  0 h,  0 min,  0.011 sec
 *  cpu-time:     0 d,  0 h,  0 min,  0.020 sec
 * ratio c/w:     1.824 speedup
 ANC optimizer:
 * wall-time:     0 d,  0 h,  0 min,  0.053 sec
 *  cpu-time:     0 d,  0 h,  0 min,  0.098 sec
 * ratio c/w:     1.857 speedup
 numerical hessian:
 * wall-time:     0 d,  0 h,  0 min,  0.475 sec
 *  cpu-time:     0 d,  0 h,  0 min,  0.941 sec
 * ratio c/w:     1.980 speedup

