 Entering Gaussian System
 *********************************************
 Gaussian 98:
 frequency output generated by the xtb code
 *********************************************
                         Standard orientation:
 --------------------------------------------------------------------
  Center     Atomic     Atomic              Coordinates (Angstroms)
  Number     Number      Type              X           Y           Z
 --------------------------------------------------------------------
    1          6             0        0.282789   -1.619568   -0.339410
    2          6             0        0.638492   -0.129392   -0.372515
    3          6             0       -1.361982    0.494471   -1.755318
    4          1             0       -0.088720   -0.847133   -2.904760
    5          6             0       -0.632959    0.711312   -0.420721
    6          1             0       -1.057336    1.252101   -2.482396
    7          1             0       -2.441318    0.583529   -1.604594
    8          6             0       -0.940708   -1.919259   -1.218931
    9          1             0        1.235633    0.128021    0.503930
   10          1             0        1.238894    0.077379   -1.263075
   11          6             0       -1.020713   -0.879724   -2.320188
   12          1             0       -1.861000   -1.883621   -0.628970
   13          1             0       -0.856267   -2.921586   -1.646567
   14          1             0       -0.390669    1.768525   -0.307188
   15          1             0       -1.280370    0.421591    0.409713
   16          1             0        1.140760   -2.190695   -0.700201
   17          1             0        0.072017   -1.934870    0.684395
   18         35             0       -2.395124   -1.401533   -3.613348
   19          6             0        2.026158   -1.477276   -4.630904
   20          8             0        1.597674   -0.549266   -3.800523
   21          1             0        1.409359   -1.573150   -5.577013
   22          1             0        3.083334   -1.311407   -4.995636
   23          1             0        2.036855   -2.523960   -4.192735
 --------------------------------------------------------------------
     1 basis functions        1 primitive gaussians
     1 alpha electrons        1 beta electrons
 
 Harmonic frequencies (cm**-1), IR intensities (km*mol⁻¹),
 Raman scattering activities (A**4/amu), Raman depolarization ratios,
 reduced masses (AMU), force constants (mDyne/A) and normal coordinates:
                      1                      2                      3
                        a                      a                      a 
 Frequencies --   -66.4757                32.9438                49.6962
 Red. masses --     1.1757                22.6316                10.2931
 Frc consts  --     0.0000                 0.0000                 0.0000
 IR Inten    --     0.1522                 7.9612                 0.2688
 Raman Activ --     0.0000                 0.0000                 0.0000
 Depolar     --     0.0000                 0.0000                 0.0000
 Atom AN      X      Y      Z        X      Y      Z        X      Y      Z
   1   6    -0.04  -0.02   0.03    -0.01   0.06   0.11     0.27   0.06  -0.26
   2   6    -0.01  -0.03   0.02    -0.15   0.10   0.26     0.01   0.13  -0.08
   3   6     0.03   0.01  -0.02    -0.07   0.01   0.11    -0.23  -0.04   0.17
   4   1     0.00  -0.01   0.00     0.02   0.04   0.03    -0.02   0.09  -0.03
   5   6     0.01  -0.00  -0.01    -0.22  -0.02   0.19    -0.15  -0.09   0.14
   6   1     0.02  -0.00  -0.01    -0.01   0.02   0.05    -0.13   0.03   0.07
   7   1     0.01   0.01  -0.01    -0.03  -0.02   0.00    -0.07  -0.08   0.08
   8   6    -0.03  -0.00   0.00     0.06   0.02   0.02     0.25  -0.04  -0.19
   9   1    -0.01  -0.01   0.01    -0.08   0.03   0.10     0.01   0.03  -0.03
  10   1     0.00  -0.01   0.01    -0.02   0.07   0.10    -0.03   0.10  -0.03
  11   6     0.00  -0.01  -0.00     0.06   0.06   0.06    -0.02   0.10  -0.05
  12   1    -0.01   0.00  -0.01     0.01  -0.02  -0.01     0.09  -0.08  -0.03
  13   1    -0.01  -0.00   0.00     0.05   0.01  -0.00     0.11   0.01  -0.10
  14   1     0.01  -0.00  -0.00    -0.10  -0.00   0.08    -0.09  -0.02   0.07
  15   1    -0.00   0.00  -0.01    -0.08  -0.04   0.03    -0.01  -0.09   0.05
  16   1    -0.01  -0.01   0.02     0.02   0.05   0.03     0.10   0.08  -0.12
  17   1    -0.02  -0.00   0.01    -0.01  -0.02   0.02     0.12  -0.04  -0.08
  18  35    -0.01   0.02  -0.01     0.41   0.05  -0.09    -0.10   0.12  -0.03
  19   6     0.03   0.01  -0.00    -0.43  -0.20  -0.28     0.09  -0.33   0.35
  20   8     0.04   0.00   0.00    -0.09  -0.12  -0.24    -0.02  -0.01  -0.07
  21   1    -0.33  -0.38   0.26    -0.19  -0.04  -0.04     0.05  -0.22   0.10
  22   1    -0.19   0.31  -0.45    -0.14  -0.11  -0.15     0.03  -0.12   0.10
  23   1     0.54   0.08   0.18    -0.15  -0.06  -0.07     0.04  -0.04   0.22
                      4                      5                      6
                        a                      a                      a 
 Frequencies --    60.9648                71.8779               102.3146
 Red. masses --    12.2408                14.3019                11.7274
 Frc consts  --     0.0000                 0.0000                 0.0000
 IR Inten    --    19.7513                15.9247                 3.9206
 Raman Activ --     0.0000                 0.0000                 0.0000
 Depolar     --     0.0000                 0.0000                 0.0000
 Atom AN      X      Y      Z        X      Y      Z        X      Y      Z
   1   6    -0.10  -0.03   0.12     0.11   0.07  -0.13    -0.09   0.05   0.12
   2   6    -0.08  -0.04   0.17    -0.11   0.13   0.11     0.08   0.00  -0.22
   3   6     0.07   0.02  -0.01    -0.03   0.04  -0.02    -0.38  -0.12   0.31
   4   1     0.00  -0.02   0.01    -0.01   0.01  -0.01    -0.03   0.06   0.05
   5   6    -0.07  -0.02   0.08    -0.22  -0.04   0.10     0.16   0.14  -0.01
   6   1     0.07  -0.00   0.01     0.03   0.02   0.02    -0.30   0.01   0.05
   7   1     0.02   0.04  -0.04    -0.01   0.03  -0.05    -0.10  -0.17   0.23
   8   6    -0.07   0.00   0.06     0.06   0.05  -0.03    -0.02  -0.06   0.05
   9   1    -0.04  -0.02   0.06    -0.06   0.03   0.05     0.09   0.02  -0.12
  10   1    -0.00  -0.00   0.06    -0.02   0.09   0.05    -0.03  -0.06  -0.11
  11   6     0.01  -0.02   0.04    -0.02   0.05  -0.03    -0.11   0.03   0.14
  12   1    -0.03   0.01   0.01     0.03   0.01   0.01    -0.01  -0.06   0.01
  13   1    -0.02  -0.00   0.02     0.02   0.01  -0.01     0.04  -0.00  -0.01
  14   1    -0.02  -0.01   0.04    -0.11  -0.01   0.08     0.10   0.04  -0.10
  15   1    -0.04  -0.01   0.00    -0.08  -0.07  -0.01     0.12   0.12   0.08
  16   1    -0.03  -0.01   0.04     0.04   0.08  -0.10    -0.03  -0.04   0.11
  17   1    -0.04  -0.01   0.03     0.08  -0.05  -0.05    -0.07   0.10   0.05
  18  35     0.00   0.05   0.09    -0.20   0.02   0.11     0.17   0.08  -0.12
  19   6     0.45  -0.05  -0.08     0.31   0.07  -0.35     0.13   0.04  -0.15
  20   8    -0.31   0.03  -0.61     0.31  -0.46   0.18    -0.17  -0.29   0.04
  21   1     0.28  -0.14  -0.10     0.07   0.13  -0.10     0.06   0.03  -0.06
  22   1     0.17   0.06   0.12     0.07   0.11  -0.11     0.03   0.12  -0.02
  23   1     0.17   0.02   0.06     0.14  -0.04  -0.25     0.11  -0.01  -0.11
                      7                      8                      9
                        a                      a                      a 
 Frequencies --   133.2924               172.5216               222.5335
 Red. masses --    14.7131                11.1643                19.7257
 Frc consts  --     0.0000                 0.0000                 0.0000
 IR Inten    --    34.5927                49.5646                 6.2845
 Raman Activ --     0.0000                 0.0000                 0.0000
 Depolar     --     0.0000                 0.0000                 0.0000
 Atom AN      X      Y      Z        X      Y      Z        X      Y      Z
   1   6    -0.21   0.01   0.24    -0.05   0.06   0.19     0.18   0.11   0.17
   2   6    -0.07  -0.04   0.03    -0.02   0.03   0.06    -0.01   0.16  -0.03
   3   6    -0.11  -0.06   0.04     0.15  -0.01  -0.16     0.02  -0.36  -0.12
   4   1     0.00   0.05  -0.04     0.03   0.02  -0.08     0.02  -0.15   0.04
   5   6     0.00   0.05  -0.03    -0.02   0.01  -0.08    -0.13  -0.04  -0.13
   6   1    -0.10   0.01   0.01     0.07  -0.01  -0.04     0.02  -0.15  -0.07
   7   1    -0.03  -0.08   0.05     0.04   0.01  -0.08     0.00  -0.10  -0.07
   8   6     0.14  -0.11  -0.21     0.34  -0.15  -0.31     0.11  -0.24   0.33
   9   1    -0.01   0.00  -0.00    -0.02   0.03   0.02    -0.01   0.10  -0.02
  10   1    -0.01  -0.06  -0.00     0.00  -0.02   0.02    -0.02   0.04  -0.02
  11   6     0.06   0.03  -0.08     0.18  -0.00  -0.17     0.04  -0.45   0.13
  12   1    -0.01  -0.14  -0.14     0.04  -0.19  -0.16     0.05  -0.05   0.11
  13   1     0.15  -0.00  -0.11     0.24  -0.00  -0.16     0.05  -0.10   0.16
  14   1     0.03   0.01  -0.05    -0.02   0.00  -0.01    -0.09   0.01  -0.07
  15   1     0.01   0.06   0.01    -0.03  -0.01  -0.05    -0.03  -0.01  -0.03
  16   1    -0.03  -0.05   0.24     0.04  -0.01   0.22     0.07   0.05   0.05
  17   1    -0.20   0.10   0.07    -0.16   0.09   0.05     0.09   0.06   0.07
  18  35    -0.18   0.01   0.15    -0.04   0.09   0.09    -0.12   0.33  -0.14
  19   6     0.07  -0.09  -0.10    -0.06   0.07   0.06    -0.00  -0.00  -0.00
  20   8     0.59   0.22  -0.22    -0.44  -0.21   0.22     0.06   0.05  -0.03
  21   1    -0.03  -0.01  -0.00     0.02   0.03  -0.01    -0.01  -0.00   0.00
  22   1     0.02  -0.16  -0.08    -0.02   0.12   0.07    -0.00  -0.02  -0.01
  23   1    -0.07  -0.01   0.02     0.04   0.00  -0.04    -0.01   0.00   0.01
                     10                     11                     12
                        a                      a                      a 
 Frequencies --   248.6100               269.6155               397.6214
 Red. masses --    37.5855                11.2278                 8.1040
 Frc consts  --     0.0000                 0.0000                 0.0000
 IR Inten    --     0.5647                 1.6920                 6.3665
 Raman Activ --     0.0000                 0.0000                 0.0000
 Depolar     --     0.0000                 0.0000                 0.0000
 Atom AN      X      Y      Z        X      Y      Z        X      Y      Z
   1   6     0.14   0.07   0.14     0.03  -0.15  -0.22    -0.01   0.05   0.11
   2   6     0.18   0.06   0.42    -0.16  -0.06   0.30     0.15  -0.02   0.07
   3   6     0.11   0.02   0.18    -0.16  -0.15  -0.11    -0.10  -0.26  -0.04
   4   1    -0.01   0.02  -0.01     0.03  -0.00  -0.01     0.09   0.02  -0.11
   5   6     0.25   0.15   0.14     0.06   0.26  -0.29    -0.03  -0.29  -0.05
   6   1    -0.01   0.02   0.04    -0.19  -0.04  -0.09    -0.22   0.05   0.04
   7   1     0.04  -0.01   0.10    -0.04  -0.15   0.05    -0.03  -0.27   0.08
   8   6     0.15   0.08   0.07    -0.02  -0.08  -0.11    -0.02   0.41   0.02
   9   1    -0.03  -0.01   0.18    -0.20  -0.06   0.20     0.00   0.03   0.04
  10   1     0.13   0.04   0.18     0.10   0.03   0.20     0.06  -0.01   0.03
  11   6     0.02   0.05   0.05     0.06  -0.08  -0.08     0.33   0.03  -0.35
  12   1     0.05   0.01   0.03     0.00   0.01  -0.02    -0.02   0.35  -0.02
  13   1     0.06   0.02   0.02    -0.04  -0.03  -0.02    -0.17   0.04   0.16
  14   1     0.11   0.04  -0.03     0.15   0.06  -0.26    -0.09  -0.07   0.02
  15   1     0.06   0.12   0.06    -0.01   0.29  -0.03     0.01  -0.15  -0.02
  16   1     0.05   0.04   0.03     0.02   0.06  -0.19    -0.04  -0.05   0.06
  17   1     0.02  -0.03   0.02     0.09  -0.20  -0.10    -0.07   0.04   0.03
  18  35    -0.38  -0.20  -0.47     0.10   0.10   0.22    -0.05   0.03   0.04
  19   6    -0.00   0.01   0.01    -0.01   0.01   0.01    -0.01   0.00   0.01
  20   8    -0.01  -0.00   0.01    -0.04   0.00   0.01    -0.05  -0.01   0.02
  21   1     0.00   0.00   0.00     0.00  -0.00   0.00     0.00   0.00   0.00
  22   1     0.00   0.01   0.00    -0.00   0.01   0.01    -0.00   0.01   0.01
  23   1     0.00   0.00  -0.00     0.00   0.00   0.00     0.00   0.00  -0.00
                     13                     14                     15
                        a                      a                      a 
 Frequencies --   460.3890               528.5694               694.4283
 Red. masses --    10.4553                 9.4225                 9.8514
 Frc consts  --     0.0000                 0.0000                 0.0000
 IR Inten    --     2.6318                 7.1512                 9.6326
 Raman Activ --     0.0000                 0.0000                 0.0000
 Depolar     --     0.0000                 0.0000                 0.0000
 Atom AN      X      Y      Z        X      Y      Z        X      Y      Z
   1   6    -0.29   0.26  -0.28     0.12  -0.24   0.12     0.12   0.01   0.07
   2   6     0.00   0.23  -0.03    -0.37  -0.15  -0.16    -0.06  -0.06   0.10
   3   6     0.29  -0.27   0.23     0.10   0.04   0.07    -0.01  -0.16   0.06
   4   1     0.05  -0.09  -0.04     0.08   0.01  -0.05    -0.17  -0.01  -0.14
   5   6     0.07   0.19   0.31    -0.15   0.25   0.19    -0.01  -0.02   0.14
   6   1     0.07  -0.06   0.08     0.02   0.04   0.04     0.18  -0.08   0.06
   7   1     0.08  -0.11   0.04     0.01  -0.07  -0.05     0.01   0.16  -0.06
   8   6    -0.24  -0.12  -0.18     0.16   0.05   0.07     0.15   0.19  -0.09
   9   1     0.07  -0.05  -0.02     0.10   0.02  -0.21     0.10   0.03  -0.07
  10   1    -0.05   0.11  -0.03    -0.29  -0.09  -0.18    -0.14  -0.04  -0.06
  11   6     0.17  -0.21  -0.14     0.41   0.07   0.01    -0.56  -0.17  -0.41
  12   1    -0.10   0.02  -0.10     0.05   0.16   0.02     0.09   0.14   0.05
  13   1    -0.05  -0.07   0.03    -0.09  -0.01   0.06    -0.04  -0.00   0.09
  14   1    -0.03   0.07   0.02     0.12   0.05  -0.05     0.11  -0.01  -0.17
  15   1     0.05   0.06   0.11    -0.07   0.24   0.09    -0.00   0.22   0.12
  16   1    -0.08   0.08  -0.09     0.07   0.01  -0.02     0.06   0.00   0.09
  17   1    -0.06   0.07  -0.08     0.08  -0.12   0.03    -0.07  -0.01  -0.00
  18  35     0.01  -0.03   0.04    -0.11  -0.03  -0.08     0.12   0.04   0.06
  19   6    -0.00   0.00   0.00    -0.00  -0.00  -0.00     0.00   0.00  -0.00
  20   8    -0.01   0.00   0.01    -0.02  -0.00   0.01     0.01  -0.00   0.00
  21   1    -0.00   0.00   0.00     0.00   0.00   0.00    -0.00   0.00  -0.00
  22   1    -0.00   0.00   0.00    -0.00   0.01   0.00     0.00  -0.00  -0.00
  23   1    -0.00   0.00   0.00     0.00   0.00  -0.00    -0.00  -0.00  -0.00
                     16                     17                     18
                        a                      a                      a 
 Frequencies --   804.6998               851.4567               908.9102
 Red. masses --     3.2165                 6.4743                 7.7176
 Frc consts  --     0.0000                 0.0000                 0.0000
 IR Inten    --     6.1313                 5.2357                 2.6434
 Raman Activ --     0.0000                 0.0000                 0.0000
 Depolar     --     0.0000                 0.0000                 0.0000
 Atom AN      X      Y      Z        X      Y      Z        X      Y      Z
   1   6     0.12  -0.09  -0.25     0.07  -0.19   0.08     0.06  -0.25   0.14
   2   6    -0.02   0.00  -0.16     0.04   0.09   0.07     0.45   0.19   0.14
   3   6    -0.09   0.05   0.10     0.05   0.27  -0.11    -0.33  -0.06  -0.06
   4   1     0.02   0.05   0.03    -0.06  -0.06  -0.10     0.05   0.10   0.03
   5   6    -0.09   0.06   0.02     0.07   0.35   0.09    -0.14   0.16   0.08
   6   1     0.11  -0.04   0.03    -0.29   0.12  -0.10     0.20  -0.10   0.01
   7   1    -0.03   0.11  -0.08     0.02  -0.13   0.19    -0.11   0.17  -0.26
   8   6     0.11  -0.14  -0.07     0.00  -0.28  -0.02    -0.17  -0.13  -0.16
   9   1    -0.23  -0.13   0.15     0.09  -0.01  -0.02     0.23   0.13  -0.06
  10   1     0.18   0.18   0.13    -0.02  -0.04  -0.02     0.03  -0.04  -0.05
  11   6     0.08  -0.02   0.12    -0.17  -0.15  -0.28     0.15   0.03   0.00
  12   1     0.14   0.27   0.13     0.05   0.10   0.06    -0.08   0.06  -0.10
  13   1    -0.29  -0.11   0.09    -0.17  -0.14   0.11    -0.13  -0.04  -0.05
  14   1     0.03   0.01  -0.02    -0.17   0.10   0.35    -0.17   0.09  -0.11
  15   1     0.02   0.05   0.05    -0.05  -0.23  -0.14     0.05   0.06   0.10
  16   1     0.09  -0.20   0.36     0.07  -0.01   0.08    -0.04  -0.11  -0.04
  17   1    -0.29   0.32  -0.02    -0.02  -0.05   0.02     0.04  -0.13   0.02
  18  35    -0.02  -0.01  -0.01     0.04   0.01   0.02    -0.01   0.00   0.01
  19   6    -0.00   0.00   0.00    -0.00   0.01   0.01     0.00  -0.01  -0.01
  20   8    -0.00  -0.01   0.00     0.00  -0.00   0.00    -0.00   0.00   0.00
  21   1     0.00   0.00  -0.00    -0.00   0.00  -0.00     0.00   0.00   0.00
  22   1     0.00   0.00  -0.00    -0.00  -0.00  -0.00    -0.00   0.00   0.00
  23   1     0.00  -0.00  -0.00    -0.00  -0.00   0.00     0.00   0.00  -0.00
                     19                     20                     21
                        a                      a                      a 
 Frequencies --   936.6746               953.2737               975.1565
 Red. masses --     5.9924                 7.4543                 7.6414
 Frc consts  --     0.0000                 0.0000                 0.0000
 IR Inten    --     5.4434                 2.1728                 3.4408
 Raman Activ --     0.0000                 0.0000                 0.0000
 Depolar     --     0.0000                 0.0000                 0.0000
 Atom AN      X      Y      Z        X      Y      Z        X      Y      Z
   1   6     0.13  -0.12  -0.20     0.05   0.21  -0.10    -0.30   0.20  -0.18
   2   6     0.15  -0.02   0.17     0.13  -0.12   0.09     0.05  -0.25   0.08
   3   6     0.16  -0.17  -0.25    -0.22   0.31  -0.27    -0.29  -0.01  -0.13
   4   1    -0.01  -0.15   0.10     0.07  -0.09  -0.01    -0.00   0.05   0.02
   5   6    -0.14   0.10   0.13    -0.04  -0.18   0.26     0.08   0.17   0.10
   6   1    -0.17  -0.05  -0.15    -0.11   0.19   0.02     0.04  -0.15  -0.14
   7   1     0.04  -0.24   0.03    -0.08  -0.05  -0.11    -0.08   0.12  -0.12
   8   6    -0.07   0.27  -0.05    -0.11  -0.21   0.18     0.36   0.15   0.04
   9   1     0.24  -0.09  -0.07     0.12  -0.13   0.00     0.16  -0.26  -0.03
  10   1    -0.15   0.09  -0.06    -0.07   0.14  -0.00    -0.01  -0.18  -0.02
  11   6    -0.12   0.04   0.27     0.12  -0.08  -0.24     0.07  -0.18   0.17
  12   1     0.05  -0.12   0.10    -0.06  -0.14   0.01     0.10   0.13   0.01
  13   1     0.02   0.17  -0.24     0.11  -0.07   0.10     0.11  -0.03   0.18
  14   1    -0.05   0.03  -0.01     0.31  -0.11  -0.04    -0.06   0.04   0.18
  15   1    -0.20   0.10  -0.07    -0.07   0.23   0.11     0.01  -0.12  -0.04
  16   1     0.01  -0.20   0.17    -0.03  -0.04   0.01    -0.05   0.12  -0.08
  17   1    -0.21   0.11  -0.06     0.05   0.21   0.03    -0.12  -0.11  -0.11
  18  35     0.00  -0.00   0.00    -0.00   0.01   0.01    -0.01   0.01  -0.01
  19   6    -0.00   0.01   0.01    -0.00  -0.00   0.00     0.00  -0.01  -0.01
  20   8     0.01  -0.00  -0.01    -0.00   0.00   0.00    -0.00   0.00   0.00
  21   1    -0.00  -0.00   0.00     0.00   0.00  -0.00     0.00  -0.00   0.00
  22   1     0.00  -0.01  -0.00    -0.00   0.00   0.00    -0.00   0.00   0.00
  23   1    -0.00  -0.00   0.00     0.00   0.00  -0.00    -0.00   0.00   0.00
                     22                     23                     24
                        a                      a                      a 
 Frequencies --   993.7297              1097.3510              1117.0248
 Red. masses --     6.3851                 7.1243                 5.1960
 Frc consts  --     0.0000                 0.0000                 0.0000
 IR Inten    --     3.1889                 2.8375                27.1359
 Raman Activ --     0.0000                 0.0000                 0.0000
 Depolar     --     0.0000                 0.0000                 0.0000
 Atom AN      X      Y      Z        X      Y      Z        X      Y      Z
   1   6    -0.03   0.20  -0.05     0.25   0.06   0.14    -0.14  -0.13  -0.13
   2   6    -0.05   0.11   0.29    -0.23   0.03  -0.04     0.07   0.19   0.01
   3   6     0.04   0.08  -0.02    -0.23  -0.03  -0.14    -0.01   0.29   0.08
   4   1    -0.01   0.10   0.04     0.07  -0.14   0.11     0.03  -0.34   0.04
   5   6     0.11  -0.33  -0.16     0.30   0.01   0.18    -0.07  -0.10  -0.05
   6   1    -0.06  -0.01  -0.06     0.02  -0.15  -0.15    -0.02   0.22   0.17
   7   1     0.04   0.06   0.15    -0.06   0.05  -0.10    -0.03  -0.10  -0.06
   8   6    -0.01  -0.26  -0.23    -0.22   0.17  -0.28     0.12   0.13   0.01
   9   1     0.23   0.17  -0.14    -0.15   0.18   0.00    -0.08   0.34  -0.02
  10   1    -0.26  -0.05  -0.11    -0.02   0.02   0.02     0.04  -0.14  -0.03
  11   6     0.03   0.10   0.24     0.06  -0.23   0.10     0.04  -0.29   0.05
  12   1     0.08   0.22   0.06    -0.07   0.02  -0.09     0.10  -0.05   0.11
  13   1    -0.27  -0.14   0.07    -0.07   0.08  -0.17     0.08   0.03   0.01
  14   1     0.10  -0.10  -0.10     0.29  -0.07   0.30     0.04  -0.03  -0.07
  15   1    -0.09   0.05  -0.09     0.12  -0.12   0.04     0.16   0.02   0.14
  16   1     0.11   0.19   0.06     0.13   0.09   0.07    -0.03  -0.06   0.02
  17   1    -0.12  -0.07  -0.07     0.00  -0.01   0.01    -0.29  -0.27  -0.16
  18  35    -0.01  -0.01  -0.00    -0.00   0.00   0.01     0.00   0.00  -0.00
  19   6     0.01  -0.01  -0.01     0.00   0.00  -0.00    -0.04   0.14   0.10
  20   8    -0.00   0.00   0.00    -0.00   0.00   0.00     0.04  -0.10  -0.09
  21   1    -0.00   0.00   0.00    -0.00  -0.00   0.00    -0.01  -0.01   0.00
  22   1    -0.00   0.00  -0.00     0.00  -0.00  -0.00     0.01  -0.02  -0.01
  23   1    -0.00   0.00   0.00    -0.00   0.00   0.00    -0.01   0.00   0.02
                     25                     26                     27
                        a                      a                      a 
 Frequencies --  1124.0097              1127.5730              1143.6014
 Red. masses --     6.1383                10.7833                 7.4591
 Frc consts  --     0.0000                 0.0000                 0.0000
 IR Inten    --   101.9313               443.6776                10.7493
 Raman Activ --     0.0000                 0.0000                 0.0000
 Depolar     --     0.0000                 0.0000                 0.0000
 Atom AN      X      Y      Z        X      Y      Z        X      Y      Z
   1   6    -0.11   0.07   0.12    -0.04  -0.01  -0.05     0.26   0.18  -0.14
   2   6    -0.03   0.01  -0.10    -0.04   0.04   0.02    -0.10  -0.24   0.19
   3   6     0.02  -0.15  -0.30    -0.02  -0.01  -0.06    -0.09  -0.03   0.24
   4   1    -0.04  -0.06  -0.01     0.06  -0.09   0.04     0.12  -0.07   0.08
   5   6     0.09  -0.03   0.20     0.06  -0.00   0.02     0.02   0.15  -0.25
   6   1     0.00   0.10   0.07     0.03   0.10   0.11     0.14   0.04   0.18
   7   1    -0.03  -0.22  -0.19    -0.02  -0.07  -0.09    -0.03   0.08  -0.07
   8   6     0.03  -0.14  -0.00    -0.02  -0.02   0.08    -0.28  -0.01   0.09
   9   1    -0.03  -0.18   0.04    -0.00   0.01  -0.00     0.13  -0.05  -0.06
  10   1     0.11  -0.08   0.03     0.02  -0.11  -0.00    -0.06  -0.26  -0.02
  11   6    -0.09   0.28   0.03    -0.00   0.06  -0.07     0.13   0.05  -0.21
  12   1     0.16   0.01   0.23     0.11  -0.10   0.20    -0.00  -0.19   0.14
  13   1    -0.21   0.02  -0.18    -0.04   0.04  -0.10     0.07   0.03  -0.03
  14   1    -0.11   0.04  -0.11    -0.08   0.03  -0.05    -0.19   0.07   0.02
  15   1     0.23  -0.03   0.21     0.15  -0.05   0.10     0.02  -0.12  -0.10
  16   1     0.15   0.28   0.03     0.10   0.11   0.08     0.20   0.10   0.19
  17   1     0.07  -0.08   0.02    -0.10  -0.07  -0.05    -0.11   0.09  -0.06
  18  35     0.01   0.00   0.00    -0.00  -0.00   0.00    -0.01  -0.01   0.00
  19   6    -0.08   0.21   0.16     0.19  -0.48  -0.40    -0.06   0.13   0.10
  20   8     0.07  -0.17  -0.14    -0.17   0.41   0.35     0.05  -0.11  -0.09
  21   1    -0.01  -0.01   0.00     0.03   0.00  -0.00    -0.00  -0.01  -0.00
  22   1     0.01  -0.02  -0.01    -0.02   0.03   0.02     0.00  -0.00   0.01
  23   1    -0.01   0.00   0.02     0.03   0.00  -0.04    -0.00   0.00   0.02
                     28                     29                     30
                        a                      a                      a 
 Frequencies --  1158.8956              1180.0021              1182.7461
 Red. masses --     8.8576                 4.5117                 4.5071
 Frc consts  --     0.0000                 0.0000                 0.0000
 IR Inten    --     6.1431                63.6757                62.6657
 Raman Activ --     0.0000                 0.0000                 0.0000
 Depolar     --     0.0000                 0.0000                 0.0000
 Atom AN      X      Y      Z        X      Y      Z        X      Y      Z
   1   6     0.14   0.31   0.17     0.00  -0.01  -0.01     0.00   0.01   0.00
   2   6     0.24  -0.34  -0.11    -0.02   0.01   0.01     0.01  -0.01  -0.00
   3   6     0.13   0.14   0.13    -0.02  -0.01   0.00     0.01   0.00   0.00
   4   1    -0.07  -0.18  -0.03    -0.01  -0.01  -0.02     0.00  -0.00   0.00
   5   6    -0.36   0.09  -0.03     0.03  -0.00  -0.01    -0.01   0.00  -0.00
   6   1    -0.05   0.07   0.04     0.01  -0.00   0.00    -0.00   0.01   0.00
   7   1    -0.00  -0.20  -0.08    -0.00   0.01  -0.00    -0.00  -0.01  -0.01
   8   6    -0.08   0.00  -0.32     0.00  -0.00   0.02    -0.00   0.00  -0.01
   9   1    -0.07  -0.02   0.05     0.01  -0.01  -0.00    -0.00   0.01   0.00
  10   1     0.20  -0.24   0.03    -0.02   0.01  -0.00     0.01  -0.01   0.00
  11   6    -0.08  -0.12   0.19     0.02   0.02  -0.01    -0.01  -0.01   0.01
  12   1    -0.02   0.13  -0.08    -0.01  -0.01  -0.01     0.00  -0.00   0.01
  13   1    -0.08  -0.05   0.02     0.00   0.00  -0.00    -0.00   0.00  -0.00
  14   1     0.03  -0.01  -0.02    -0.01   0.00   0.00     0.00   0.00   0.00
  15   1    -0.11   0.10  -0.00     0.01  -0.01  -0.01     0.00   0.00   0.00
  16   1     0.02   0.12  -0.06    -0.00  -0.01   0.00     0.00   0.01   0.00
  17   1     0.10  -0.02   0.02     0.00   0.02   0.00    -0.01  -0.01  -0.00
  18  35     0.01  -0.00   0.00     0.00   0.00  -0.00     0.00  -0.00   0.00
  19   6     0.05  -0.05  -0.06     0.47   0.08   0.09    -0.03  -0.30   0.38
  20   8    -0.04   0.06   0.05    -0.24  -0.03  -0.03     0.02   0.13  -0.20
  21   1    -0.01  -0.00   0.01    -0.36   0.26   0.27    -0.07   0.43   0.04
  22   1     0.00  -0.03  -0.02    -0.02  -0.41  -0.42    -0.10   0.35  -0.06
  23   1    -0.02   0.01   0.01    -0.28  -0.01  -0.04     0.18  -0.28  -0.51
                     31                     32                     33
                        a                      a                      a 
 Frequencies --  1207.3486              1223.0789              1241.9771
 Red. masses --     3.8950                 3.3127                 3.3984
 Frc consts  --     0.0000                 0.0000                 0.0000
 IR Inten    --     0.5487                 4.7003                 3.4484
 Raman Activ --     0.0000                 0.0000                 0.0000
 Depolar     --     0.0000                 0.0000                 0.0000
 Atom AN      X      Y      Z        X      Y      Z        X      Y      Z
   1   6     0.03   0.07  -0.16     0.23   0.01  -0.07     0.05   0.00  -0.10
   2   6     0.03  -0.07   0.04    -0.11  -0.06  -0.04    -0.18  -0.02   0.23
   3   6     0.07  -0.22  -0.08     0.10   0.07  -0.23    -0.06   0.05  -0.03
   4   1    -0.10   0.23  -0.11    -0.02   0.15   0.01    -0.26  -0.18  -0.34
   5   6    -0.01   0.12   0.08    -0.01  -0.05   0.18     0.17   0.02  -0.12
   6   1     0.03  -0.06  -0.02    -0.12  -0.01  -0.14     0.06   0.17   0.19
   7   1    -0.03  -0.23  -0.25     0.07   0.08   0.22    -0.05  -0.16  -0.19
   8   6    -0.03  -0.15   0.12    -0.14   0.02  -0.00     0.10  -0.02  -0.02
   9   1    -0.14   0.46  -0.03    -0.06   0.00   0.01     0.06   0.00  -0.02
  10   1     0.05  -0.24  -0.01     0.04  -0.13   0.01    -0.16  -0.02  -0.02
  11   6    -0.09   0.32   0.01    -0.02   0.00   0.10    -0.02  -0.05   0.22
  12   1    -0.01  -0.04   0.03    -0.22   0.04  -0.28    -0.11   0.13  -0.22
  13   1     0.11  -0.10   0.22     0.23  -0.10   0.30    -0.05   0.01  -0.06
  14   1     0.25  -0.05   0.24    -0.30   0.09  -0.26    -0.16   0.05  -0.05
  15   1    -0.03  -0.03  -0.02     0.27  -0.01   0.26     0.22  -0.12   0.07
  16   1    -0.10  -0.16  -0.01     0.12   0.01   0.11    -0.15  -0.21  -0.08
  17   1    -0.13  -0.01  -0.08    -0.17  -0.08  -0.09     0.18   0.33   0.11
  18  35     0.00  -0.00   0.00     0.00   0.00   0.00     0.02   0.01  -0.00
  19   6     0.00   0.00  -0.00     0.01  -0.01  -0.00    -0.01  -0.02  -0.01
  20   8    -0.00  -0.00   0.00    -0.00   0.00   0.00     0.00   0.02   0.02
  21   1    -0.00  -0.00   0.00    -0.00   0.00   0.00     0.02  -0.01  -0.01
  22   1     0.00  -0.00  -0.00    -0.00   0.00  -0.00    -0.00   0.01   0.01
  23   1    -0.00   0.00   0.00    -0.00   0.00  -0.00     0.02  -0.01  -0.01
                     34                     35                     36
                        a                      a                      a 
 Frequencies --  1256.9036              1280.4413              1310.0032
 Red. masses --     2.4307                 2.6880                 3.3858
 Frc consts  --     0.0000                 0.0000                 0.0000
 IR Inten    --     1.9342                12.6431                 6.9687
 Raman Activ --     0.0000                 0.0000                 0.0000
 Depolar     --     0.0000                 0.0000                 0.0000
 Atom AN      X      Y      Z        X      Y      Z        X      Y      Z
   1   6     0.06  -0.12   0.08    -0.01   0.02  -0.07    -0.02  -0.04   0.06
   2   6     0.02   0.17  -0.09     0.09   0.05  -0.05    -0.00  -0.05  -0.02
   3   6    -0.01  -0.04   0.07    -0.06   0.03   0.05    -0.08   0.08   0.16
   4   1    -0.11  -0.03  -0.10    -0.35  -0.01  -0.64    -0.05  -0.51  -0.16
   5   6     0.06  -0.01  -0.14    -0.09  -0.04   0.05     0.12  -0.06   0.06
   6   1     0.08   0.11   0.18    -0.03  -0.16  -0.17    -0.01  -0.30  -0.30
   7   1    -0.06  -0.22  -0.28     0.01   0.16   0.13    -0.04  -0.01  -0.08
   8   6    -0.08   0.03   0.03    -0.09  -0.02   0.24    -0.08   0.00  -0.19
   9   1     0.10  -0.34   0.02    -0.05  -0.01   0.04    -0.07   0.04   0.02
  10   1    -0.04   0.28  -0.00     0.07  -0.13  -0.01    -0.07   0.16  -0.01
  11   6    -0.08   0.08   0.11     0.20  -0.04   0.02     0.07   0.31  -0.04
  12   1    -0.18   0.04  -0.23    -0.06  -0.08   0.00     0.15  -0.07   0.22
  13   1     0.16  -0.07   0.23    -0.09   0.13  -0.28     0.17  -0.13   0.31
  14   1     0.15  -0.05   0.09     0.07  -0.03   0.01    -0.16   0.04  -0.12
  15   1    -0.10  -0.02  -0.14    -0.07   0.05  -0.00    -0.04   0.00  -0.03
  16   1     0.22   0.19   0.13     0.14   0.16   0.09    -0.04  -0.04  -0.02
  17   1    -0.20  -0.27  -0.10    -0.12  -0.09  -0.07     0.05  -0.00   0.03
  18  35     0.01   0.00  -0.00     0.03   0.01  -0.00     0.01  -0.00   0.00
  19   6    -0.00  -0.02  -0.01    -0.01  -0.00   0.00    -0.01  -0.01  -0.00
  20   8    -0.00   0.01   0.01     0.01   0.00   0.01     0.00   0.02   0.01
  21   1     0.01  -0.00  -0.01     0.01  -0.00  -0.01     0.01  -0.01  -0.01
  22   1    -0.00   0.01   0.00    -0.00   0.01  -0.00     0.00  -0.00   0.00
  23   1     0.00  -0.00  -0.00     0.00  -0.00  -0.00     0.01  -0.01  -0.01
                     37                     38                     39
                        a                      a                      a 
 Frequencies --  1332.5664              1336.5368              1346.3353
 Red. masses --     4.0530                 4.1841                 4.6417
 Frc consts  --     0.0000                 0.0000                 0.0000
 IR Inten    --     5.6182                12.8599                 3.3458
 Raman Activ --     0.0000                 0.0000                 0.0000
 Depolar     --     0.0000                 0.0000                 0.0000
 Atom AN      X      Y      Z        X      Y      Z        X      Y      Z
   1   6    -0.05  -0.00  -0.03     0.23   0.27   0.20     0.15   0.22   0.02
   2   6     0.06  -0.20  -0.11    -0.08  -0.00  -0.08    -0.08   0.03  -0.03
   3   6    -0.10  -0.03  -0.07    -0.08  -0.16  -0.17     0.00   0.07   0.14
   4   1    -0.01   0.02  -0.00    -0.08  -0.02  -0.15     0.13  -0.25   0.19
   5   6     0.36  -0.02   0.25     0.05   0.06   0.01     0.08  -0.06   0.05
   6   1     0.01   0.18   0.19     0.06   0.20   0.25    -0.03  -0.18  -0.19
   7   1    -0.03   0.03  -0.06     0.04   0.19   0.20    -0.03  -0.07  -0.13
   8   6     0.03   0.01   0.04    -0.08  -0.06  -0.11     0.21  -0.18   0.28
   9   1    -0.20   0.31   0.01    -0.03  -0.16   0.03    -0.01  -0.08   0.01
  10   1    -0.00   0.10  -0.01    -0.03   0.09  -0.00     0.01  -0.08  -0.01
  11   6     0.00  -0.08   0.05     0.09   0.02   0.07    -0.09   0.17  -0.16
  12   1    -0.05   0.04  -0.08     0.12  -0.08   0.20    -0.20   0.11  -0.32
  13   1    -0.02   0.02  -0.05    -0.03  -0.04   0.03    -0.24   0.06  -0.25
  14   1    -0.35   0.12  -0.15    -0.01   0.02   0.04    -0.06   0.01  -0.08
  15   1    -0.44   0.16  -0.29    -0.04  -0.00  -0.05    -0.05  -0.00  -0.04
  16   1     0.09   0.14   0.02    -0.31  -0.35  -0.16    -0.15  -0.18  -0.07
  17   1    -0.03   0.01  -0.01    -0.21  -0.30  -0.11    -0.21  -0.19  -0.12
  18  35     0.00   0.00   0.00     0.01   0.00   0.00    -0.01  -0.00  -0.00
  19   6    -0.00   0.00  -0.00    -0.00   0.00   0.00    -0.00  -0.00  -0.00
  20   8    -0.00  -0.00   0.00     0.00   0.00   0.00    -0.00   0.01   0.00
  21   1     0.00  -0.00  -0.00     0.00  -0.00  -0.00     0.00  -0.01  -0.00
  22   1     0.00  -0.00  -0.00     0.00  -0.00  -0.00     0.00  -0.00   0.00
  23   1    -0.00   0.00   0.00     0.00  -0.00  -0.00     0.00  -0.00  -0.00
                     40                     41                     42
                        a                      a                      a 
 Frequencies --  1351.2042              1362.3970              1477.4818
 Red. masses --     3.7942                 4.5838                 1.9084
 Frc consts  --     0.0000                 0.0000                 0.0000
 IR Inten    --     4.3197                 1.1825                18.8926
 Raman Activ --     0.0000                 0.0000                 0.0000
 Depolar     --     0.0000                 0.0000                 0.0000
 Atom AN      X      Y      Z        X      Y      Z        X      Y      Z
   1   6     0.07   0.10   0.10    -0.07   0.09   0.03    -0.03   0.02  -0.03
   2   6    -0.06  -0.05  -0.01     0.18  -0.43   0.04    -0.01   0.01   0.01
   3   6     0.09   0.27   0.18     0.04  -0.05  -0.02     0.13  -0.13   0.09
   4   1    -0.05   0.51  -0.07     0.00  -0.04  -0.01    -0.01  -0.01  -0.00
   5   6     0.12  -0.08  -0.01    -0.15   0.16  -0.14    -0.04   0.09   0.12
   6   1    -0.07  -0.13  -0.21    -0.01  -0.00  -0.00    -0.47   0.18  -0.01
   7   1    -0.06  -0.29  -0.34     0.02   0.06   0.07    -0.01   0.37  -0.33
   8   6    -0.11   0.05  -0.04     0.05  -0.06   0.10    -0.01   0.01  -0.02
   9   1    -0.00  -0.04  -0.00    -0.06   0.26  -0.02     0.02   0.01  -0.01
  10   1    -0.08   0.17  -0.00    -0.24   0.59  -0.02     0.01   0.00   0.01
  11   6     0.03  -0.27  -0.02    -0.01   0.05  -0.03     0.01  -0.01   0.02
  12   1     0.11  -0.12   0.21    -0.04   0.04  -0.06     0.01   0.01   0.01
  13   1    -0.03   0.04  -0.08    -0.06   0.03  -0.10     0.01   0.00   0.01
  14   1    -0.16   0.04  -0.14     0.00   0.02   0.07     0.19  -0.01  -0.32
  15   1     0.05  -0.02   0.02     0.28  -0.12   0.16    -0.01  -0.35  -0.13
  16   1    -0.10  -0.10  -0.06     0.05   0.13   0.01     0.01  -0.04   0.09
  17   1    -0.08  -0.10  -0.03    -0.10  -0.11  -0.05     0.08  -0.05   0.00
  18  35    -0.00   0.00   0.00     0.00  -0.00  -0.00    -0.00  -0.00  -0.00
  19   6     0.01   0.00  -0.00    -0.00  -0.00  -0.00    -0.03   0.05   0.05
  20   8     0.00  -0.02  -0.00     0.00  -0.00   0.00    -0.03   0.05   0.05
  21   1    -0.01   0.01   0.01     0.00  -0.00  -0.00     0.11  -0.14  -0.08
  22   1    -0.00   0.01   0.00    -0.00  -0.00  -0.00     0.00  -0.16  -0.11
  23   1    -0.01   0.01   0.01    -0.00   0.00   0.00     0.08  -0.08  -0.16
                     43                     44                     45
                        a                      a                      a 
 Frequencies --  1479.5038              1480.6480              1491.0968
 Red. masses --     2.0671                 1.9171                 2.0181
 Frc consts  --     0.0000                 0.0000                 0.0000
 IR Inten    --   102.2182                18.3512                 1.7569
 Raman Activ --     0.0000                 0.0000                 0.0000
 Depolar     --     0.0000                 0.0000                 0.0000
 Atom AN      X      Y      Z        X      Y      Z        X      Y      Z
   1   6     0.05  -0.07   0.06    -0.08   0.12  -0.09     0.08  -0.10   0.09
   2   6    -0.04  -0.02  -0.01     0.03   0.02  -0.01     0.00   0.02  -0.00
   3   6    -0.03   0.04  -0.03     0.00   0.01  -0.00     0.10  -0.11   0.07
   4   1    -0.01   0.03   0.00     0.01   0.02   0.03     0.01  -0.03   0.01
   5   6     0.00  -0.03  -0.03     0.04  -0.06  -0.08     0.03  -0.10  -0.12
   6   1     0.14  -0.06  -0.00     0.02  -0.02  -0.01    -0.36   0.10  -0.04
   7   1     0.00  -0.11   0.10    -0.00  -0.03   0.00    -0.01   0.27  -0.25
   8   6     0.03   0.03   0.00    -0.11  -0.12   0.03    -0.06  -0.09   0.01
   9   1     0.08   0.03  -0.06    -0.07  -0.03   0.06    -0.00  -0.04   0.01
  10   1     0.09   0.02   0.07    -0.09  -0.02  -0.06    -0.00  -0.03  -0.01
  11   6     0.01   0.00  -0.02    -0.01  -0.01  -0.01    -0.01   0.02   0.00
  12   1    -0.01  -0.11  -0.01     0.05   0.38   0.06     0.05   0.22   0.06
  13   1    -0.09  -0.03   0.04     0.33   0.10  -0.17     0.21   0.05  -0.09
  14   1    -0.06   0.00   0.09    -0.13   0.01   0.20    -0.17  -0.00   0.32
  15   1     0.00   0.11   0.04     0.01   0.22   0.08     0.04   0.33   0.15
  16   1    -0.01   0.13  -0.23     0.01  -0.22   0.38    -0.03   0.15  -0.31
  17   1    -0.21   0.16   0.01     0.33  -0.27  -0.02    -0.28   0.21   0.01
  18  35    -0.00   0.00   0.00    -0.00  -0.00   0.00     0.00  -0.00  -0.00
  19   6    -0.07   0.12   0.11    -0.03   0.05   0.04     0.01  -0.01  -0.02
  20   8    -0.06   0.13   0.11    -0.03   0.05   0.05     0.01  -0.02  -0.02
  21   1     0.26  -0.34  -0.18     0.11  -0.13  -0.08    -0.06   0.04   0.04
  22   1     0.01  -0.38  -0.26     0.01  -0.16  -0.11     0.01   0.05   0.06
  23   1     0.18  -0.20  -0.39     0.09  -0.08  -0.16    -0.02   0.02   0.05
                     46                     47                     48
                        a                      a                      a 
 Frequencies --  1500.2461              1511.5920              1515.9292
 Red. masses --     1.9283                 1.9066                 1.5706
 Frc consts  --     0.0000                 0.0000                 0.0000
 IR Inten    --     0.0936                 5.0381                83.3094
 Raman Activ --     0.0000                 0.0000                 0.0000
 Depolar     --     0.0000                 0.0000                 0.0000
 Atom AN      X      Y      Z        X      Y      Z        X      Y      Z
   1   6    -0.03   0.05  -0.04    -0.05   0.07  -0.04     0.00  -0.00   0.00
   2   6     0.13   0.04   0.01    -0.21  -0.08  -0.02     0.02   0.01   0.00
   3   6     0.05  -0.06   0.02     0.03  -0.03   0.02    -0.00   0.00  -0.00
   4   1     0.01   0.02   0.02    -0.03  -0.04  -0.05    -0.00   0.01   0.00
   5   6     0.03  -0.06  -0.09     0.03  -0.07  -0.05    -0.00   0.00   0.00
   6   1    -0.16   0.05  -0.01    -0.12   0.03  -0.02     0.00  -0.00  -0.00
   7   1    -0.00   0.12  -0.12    -0.00   0.09  -0.08    -0.00  -0.00   0.00
   8   6     0.11   0.15  -0.04     0.05   0.06  -0.01     0.00   0.00   0.00
   9   1    -0.24  -0.10   0.20     0.38   0.15  -0.32    -0.03  -0.01   0.02
  10   1    -0.29  -0.10  -0.22     0.43   0.17   0.33    -0.03  -0.01  -0.02
  11   6     0.01   0.00   0.02     0.01   0.01   0.02     0.00  -0.00  -0.00
  12   1    -0.08  -0.43  -0.11    -0.04  -0.17  -0.05    -0.00  -0.01  -0.00
  13   1    -0.39  -0.11   0.20    -0.16  -0.04   0.07    -0.01  -0.00   0.01
  14   1    -0.13   0.00   0.24    -0.12   0.00   0.17     0.00   0.00  -0.00
  15   1     0.04   0.24   0.11     0.01   0.21   0.08     0.00  -0.01  -0.00
  16   1     0.03  -0.06   0.15     0.00  -0.10   0.18    -0.00   0.01  -0.01
  17   1     0.14  -0.07   0.00     0.15  -0.15  -0.01    -0.01   0.01   0.00
  18  35    -0.00  -0.00  -0.00     0.00   0.00  -0.00    -0.00  -0.00  -0.00
  19   6    -0.00   0.00   0.02    -0.01  -0.05   0.02    -0.21  -0.04  -0.07
  20   8    -0.00   0.01   0.01     0.00  -0.02  -0.00    -0.04  -0.01  -0.02
  21   1     0.04  -0.03  -0.03     0.07   0.10  -0.06     0.05   0.51   0.03
  22   1    -0.01  -0.01  -0.05    -0.02   0.04  -0.09     0.18  -0.44   0.03
  23   1    -0.01  -0.01  -0.03    -0.02   0.07   0.11     0.63   0.11   0.23
                     49                     50                     51
                        a                      a                      a 
 Frequencies --  1516.9986              2323.8716              2352.3349
 Red. masses --     1.5655                 1.6004                 1.6178
 Frc consts  --     0.0000                 0.0000                 0.0000
 IR Inten    --    65.1468               609.1202               673.0237
 Raman Activ --     0.0000                 0.0000                 0.0000
 Depolar     --     0.0000                 0.0000                 0.0000
 Atom AN      X      Y      Z        X      Y      Z        X      Y      Z
   1   6     0.02  -0.02   0.01    -0.00   0.00   0.00    -0.00   0.00   0.00
   2   6     0.04   0.02   0.00    -0.00   0.00   0.00    -0.00   0.00   0.00
   3   6    -0.01   0.01  -0.00    -0.00  -0.00   0.00    -0.00   0.00   0.00
   4   1     0.01  -0.00   0.02     0.00  -0.00  -0.00    -0.01  -0.00   0.00
   5   6    -0.01   0.01   0.01    -0.00   0.00  -0.00     0.00   0.00  -0.00
   6   1     0.02  -0.01   0.00     0.00   0.00  -0.00    -0.00  -0.00  -0.00
   7   1     0.00  -0.02   0.02    -0.00  -0.00   0.00     0.00   0.00  -0.00
   8   6    -0.02  -0.02   0.00    -0.00   0.00  -0.00    -0.00   0.00   0.00
   9   1    -0.07  -0.03   0.06     0.00  -0.00   0.00    -0.00  -0.00   0.00
  10   1    -0.07  -0.04  -0.06     0.00  -0.00  -0.00    -0.00   0.00  -0.00
  11   6    -0.00   0.00  -0.01    -0.00  -0.00   0.00     0.00  -0.00  -0.00
  12   1     0.01   0.06   0.02     0.00   0.00  -0.00     0.00  -0.00  -0.00
  13   1     0.06   0.02  -0.03     0.00   0.00   0.00     0.00   0.00  -0.00
  14   1     0.02  -0.00  -0.03     0.00   0.00   0.00    -0.00  -0.00  -0.00
  15   1    -0.00  -0.04  -0.02    -0.00  -0.00   0.00    -0.00  -0.00   0.00
  16   1    -0.01   0.03  -0.06    -0.00  -0.00  -0.00    -0.00  -0.00  -0.00
  17   1    -0.05   0.04   0.00     0.00  -0.00  -0.00     0.00  -0.00  -0.00
  18  35    -0.00  -0.00   0.00     0.00   0.00   0.00    -0.00  -0.00   0.00
  19   6    -0.03  -0.14   0.15     0.04  -0.14   0.18    -0.22  -0.09  -0.01
  20   8    -0.00  -0.03   0.03     0.00  -0.01   0.00    -0.01  -0.01  -0.01
  21   1     0.43   0.21  -0.37    -0.39  -0.10  -0.42     0.24  -0.05   0.49
  22   1    -0.17   0.16  -0.57     0.16  -0.06   0.09     0.67   0.14  -0.24
  23   1    -0.16   0.24   0.29     0.05   0.69  -0.30    -0.13   0.25  -0.18
                     52                     53                     54
                        a                      a                      a 
 Frequencies --  2550.7407              2836.6574              2946.7475
 Red. masses --     1.1845                 1.8274                 1.9474
 Frc consts  --     0.0000                 0.0000                 0.0000
 IR Inten    --   470.7219               232.3194                 8.4471
 Raman Activ --     0.0000                 0.0000                 0.0000
 Depolar     --     0.0000                 0.0000                 0.0000
 Atom AN      X      Y      Z        X      Y      Z        X      Y      Z
   1   6     0.00   0.00  -0.00    -0.00   0.00   0.00    -0.08   0.02   0.10
   2   6    -0.00  -0.00   0.00    -0.00  -0.00   0.01     0.00   0.00  -0.04
   3   6     0.00   0.00   0.00    -0.01  -0.00   0.01    -0.05  -0.02   0.03
   4   1     0.07  -0.00  -0.04    -0.81  -0.03   0.51    -0.04   0.00   0.02
   5   6     0.00  -0.00  -0.00    -0.00   0.00   0.00    -0.00   0.00   0.01
   6   1    -0.00   0.00  -0.00     0.00   0.02  -0.02     0.03   0.07  -0.07
   7   1    -0.00  -0.00   0.00     0.06  -0.00  -0.01     0.15  -0.01  -0.02
   8   6     0.00  -0.00  -0.00    -0.01   0.00   0.01     0.17  -0.12  -0.15
   9   1     0.00   0.00   0.00    -0.01  -0.00  -0.01     0.04   0.02   0.05
  10   1     0.00   0.00  -0.00     0.02   0.01  -0.03    -0.06  -0.02   0.09
  11   6    -0.02  -0.00   0.01     0.23   0.01  -0.15     0.02  -0.00  -0.01
  12   1    -0.00   0.00   0.00     0.06  -0.01  -0.04    -0.60   0.02   0.39
  13   1     0.00  -0.00  -0.00    -0.00  -0.01  -0.00    -0.02   0.40   0.16
  14   1     0.00   0.00   0.00    -0.00  -0.01  -0.00    -0.01  -0.02  -0.00
  15   1    -0.00  -0.00   0.00     0.00   0.00  -0.00     0.02   0.01  -0.02
  16   1     0.00  -0.00   0.00    -0.00  -0.00  -0.00     0.23  -0.15  -0.09
  17   1    -0.00  -0.00   0.00     0.00   0.00  -0.00     0.05   0.09  -0.27
  18  35    -0.00  -0.00  -0.00     0.00   0.00   0.00     0.00  -0.00  -0.00
  19   6     0.03  -0.01  -0.03     0.01  -0.01  -0.01     0.00  -0.00  -0.00
  20   8     0.03  -0.07  -0.06     0.00   0.00   0.00     0.00   0.00  -0.00
  21   1     0.34   0.01   0.44     0.02   0.00   0.03     0.00   0.00   0.00
  22   1    -0.59  -0.14   0.16    -0.05  -0.00   0.02    -0.00   0.00   0.00
  23   1     0.02   0.46  -0.25     0.00   0.04  -0.02    -0.00   0.00  -0.00
                     55                     56                     57
                        a                      a                      a 
 Frequencies --  2950.8584              2959.8923              2966.5220
 Red. masses --     1.9531                 1.9462                 1.8339
 Frc consts  --     0.0000                 0.0000                 0.0000
 IR Inten    --     9.3882                35.7572                13.0507
 Raman Activ --     0.0000                 0.0000                 0.0000
 Depolar     --     0.0000                 0.0000                 0.0000
 Atom AN      X      Y      Z        X      Y      Z        X      Y      Z
   1   6     0.02  -0.00  -0.03     0.08  -0.00  -0.15     0.08  -0.02  -0.10
   2   6    -0.00  -0.00   0.02    -0.02  -0.00   0.20     0.02  -0.00  -0.08
   3   6    -0.22  -0.08   0.12     0.03   0.01  -0.02    -0.10   0.04  -0.01
   4   1     0.05   0.00  -0.03    -0.01  -0.00   0.01    -0.00   0.00   0.00
   5   6     0.06   0.06  -0.06     0.01   0.00  -0.02    -0.11  -0.11   0.11
   6   1     0.13   0.37  -0.35    -0.02  -0.05   0.05    -0.07  -0.11   0.11
   7   1     0.68  -0.07  -0.09    -0.07   0.01   0.01     0.44  -0.03  -0.07
   8   6    -0.02   0.01   0.02     0.08  -0.06  -0.07     0.04   0.04  -0.01
   9   1    -0.01  -0.00  -0.01    -0.22  -0.09  -0.29     0.07   0.03   0.09
  10   1     0.04   0.01  -0.06     0.30   0.10  -0.43    -0.13  -0.04   0.19
  11   6    -0.02  -0.00   0.01     0.01  -0.00  -0.01    -0.00   0.00  -0.00
  12   1     0.08  -0.00  -0.06    -0.27   0.01   0.18    -0.17   0.02   0.12
  13   1     0.00  -0.05  -0.02    -0.01   0.20   0.08     0.02  -0.15  -0.07
  14   1    -0.03  -0.14  -0.02     0.01   0.02  -0.00     0.05   0.26   0.04
  15   1    -0.20  -0.09   0.26    -0.06  -0.03   0.08     0.34   0.15  -0.43
  16   1    -0.06   0.04   0.02    -0.20   0.14   0.07    -0.25   0.17   0.10
  17   1    -0.01  -0.03   0.08    -0.09  -0.14   0.46    -0.04  -0.08   0.24
  18  35     0.00  -0.00  -0.00    -0.00   0.00  -0.00     0.00   0.00   0.00
  19   6    -0.00   0.00   0.00    -0.00   0.00   0.00     0.00  -0.00  -0.00
  20   8    -0.00  -0.00   0.00     0.00  -0.00  -0.00     0.00   0.00  -0.00
  21   1    -0.00  -0.00  -0.00    -0.00  -0.00  -0.00     0.00   0.00   0.00
  22   1     0.00  -0.00  -0.00     0.00   0.00  -0.00    -0.00   0.00   0.00
  23   1     0.00  -0.00   0.00     0.00  -0.00   0.00    -0.00   0.00  -0.00
                     58                     59                     60
                        a                      a                      a 
 Frequencies --  2968.6914              2969.0232              2974.7060
 Red. masses --     1.5867                 1.5282                 1.8704
 Frc consts  --     0.0000                 0.0000                 0.0000
 IR Inten    --    36.8524                54.6420               126.1403
 Raman Activ --     0.0000                 0.0000                 0.0000
 Depolar     --     0.0000                 0.0000                 0.0000
 Atom AN      X      Y      Z        X      Y      Z        X      Y      Z
   1   6    -0.00   0.04  -0.09    -0.07   0.04   0.03    -0.10   0.06   0.07
   2   6     0.02   0.01  -0.06     0.01   0.01   0.04     0.07   0.03   0.16
   3   6     0.01  -0.07   0.06    -0.06   0.12  -0.09    -0.03  -0.05   0.05
   4   1     0.01  -0.00  -0.00     0.03   0.00  -0.02     0.02   0.00  -0.01
   5   6    -0.04  -0.02   0.06     0.01  -0.02  -0.04    -0.07  -0.09   0.07
   6   1     0.11   0.25  -0.24    -0.20  -0.42   0.40     0.07   0.18  -0.16
   7   1    -0.15   0.00   0.03     0.43  -0.01  -0.08     0.03  -0.01   0.00
   8   6    -0.06  -0.14  -0.02    -0.06  -0.08   0.01    -0.02   0.06   0.03
   9   1     0.04   0.01   0.04    -0.07  -0.03  -0.11    -0.34  -0.15  -0.52
  10   1    -0.12  -0.04   0.19     0.02   0.01  -0.03     0.06   0.02  -0.06
  11   6    -0.00  -0.01   0.00    -0.01   0.00   0.00    -0.01   0.00   0.01
  12   1     0.27  -0.04  -0.19     0.25  -0.03  -0.17     0.04   0.01  -0.03
  13   1    -0.07   0.55   0.25    -0.04   0.31   0.14     0.02  -0.23  -0.10
  14   1    -0.01  -0.00   0.01     0.04   0.14   0.01     0.05   0.22   0.03
  15   1     0.17   0.08  -0.21    -0.09  -0.05   0.11     0.21   0.09  -0.27
  16   1     0.09  -0.05  -0.05     0.25  -0.16  -0.11     0.35  -0.23  -0.15
  17   1    -0.08  -0.11   0.37    -0.01   0.00   0.02     0.01   0.04  -0.10
  18  35     0.00   0.00   0.00     0.00   0.00   0.00    -0.00  -0.00  -0.00
  19   6     0.00   0.00  -0.00     0.00  -0.00  -0.00     0.00   0.00  -0.00
  20   8    -0.00  -0.00  -0.00    -0.00  -0.00   0.00    -0.00  -0.00   0.00
  21   1     0.00   0.00   0.00     0.00   0.00   0.00    -0.00   0.00  -0.00
  22   1    -0.00  -0.00   0.00    -0.00  -0.00   0.00     0.00  -0.00  -0.00
  23   1    -0.00   0.00   0.00    -0.00   0.00   0.00     0.00  -0.00   0.00
                     61                     62                     63
                        a                      a                      a 
 Frequencies --  2979.8367              2984.7181              2992.5479
 Red. masses --     1.6246                 1.5166                 1.5870
 Frc consts  --     0.0000                 0.0000                 0.0000
 IR Inten    --   125.4847                99.8690                73.0252
 Raman Activ --     0.0000                 0.0000                 0.0000
 Depolar     --     0.0000                 0.0000                 0.0000
 Atom AN      X      Y      Z        X      Y      Z        X      Y      Z
   1   6    -0.04   0.09  -0.10     0.09  -0.08   0.01    -0.02   0.03  -0.01
   2   6     0.08   0.03  -0.09     0.14   0.05  -0.01    -0.07  -0.03  -0.04
   3   6     0.03   0.02  -0.02     0.02  -0.01  -0.00     0.01  -0.04   0.02
   4   1    -0.03  -0.00   0.02    -0.02  -0.00   0.01    -0.01  -0.00   0.00
   5   6     0.06   0.05  -0.06     0.03  -0.05  -0.06    -0.01  -0.19  -0.07
   6   1    -0.02  -0.06   0.06     0.01   0.02  -0.02     0.05   0.12  -0.11
   7   1    -0.07   0.01   0.01    -0.07   0.00   0.01    -0.09  -0.00   0.02
   8   6     0.04   0.07  -0.00     0.00  -0.04  -0.02     0.00   0.01   0.00
   9   1    -0.04  -0.02  -0.09    -0.24  -0.11  -0.40     0.17   0.07   0.26
  10   1    -0.26  -0.09   0.41    -0.25  -0.09   0.42     0.07   0.02  -0.13
  11   6     0.01   0.00  -0.01     0.00  -0.00  -0.00     0.00   0.00   0.00
  12   1    -0.19   0.02   0.13     0.01  -0.01  -0.01    -0.02   0.00   0.01
  13   1     0.04  -0.26  -0.12    -0.02   0.17   0.07     0.01  -0.04  -0.02
  14   1    -0.02  -0.11  -0.02     0.07   0.27   0.02     0.20   0.80   0.06
  15   1    -0.19  -0.08   0.24    -0.17  -0.09   0.21    -0.17  -0.11   0.20
  16   1     0.28  -0.17  -0.14    -0.36   0.24   0.17     0.10  -0.07  -0.05
  17   1    -0.12  -0.14   0.52     0.06   0.05  -0.22    -0.02  -0.02   0.09
  18  35    -0.00  -0.00  -0.00     0.00  -0.00   0.00    -0.00  -0.00  -0.00
  19   6     0.00  -0.00  -0.00     0.00  -0.00  -0.00    -0.00   0.00   0.00
  20   8     0.00   0.00  -0.00     0.00   0.00  -0.00     0.00  -0.00  -0.00
  21   1     0.00   0.00   0.00     0.00   0.00   0.00    -0.00  -0.00  -0.00
  22   1    -0.00   0.00   0.00    -0.00  -0.00   0.00     0.00   0.00  -0.00
  23   1     0.00   0.00  -0.00    -0.00   0.00  -0.00    -0.00  -0.00   0.00
