      -----------------------------------------------------------      
     |                   =====================                   |     
     |                           x T B                           |     
     |                   =====================                   |     
     |                         S. Grimme                         |     
     |          Mulliken Center for Theoretical Chemistry        |     
     |                    University of Bonn                     |     
      -----------------------------------------------------------      

   * xtb version 6.4.0 (d4b70c2) compiled by 'ehlert@majestix' on 2021-02-01

   xtb is free software: you can redistribute it and/or modify it under
   the terms of the GNU Lesser General Public License as published by
   the Free Software Foundation, either version 3 of the License, or
   (at your option) any later version.
   
   xtb is distributed in the hope that it will be useful,
   but WITHOUT ANY WARRANTY; without even the implied warranty of
   MERCHANTABILITY or FITNESS FOR A PARTICULAR PURPOSE.  See the
   GNU Lesser General Public License for more details.
   
   Cite this work as:
   * C. Bannwarth, E. Caldeweyher, S. Ehlert, A. Hansen, P. Pracht,
     J. Seibert, S. Spicher, S. Grimme, WIREs Comput. Mol. Sci., 2020,
     e01493. DOI: 10.1002/wcms.1493
   
   for GFN2-xTB:
   * C. Bannwarth, S. Ehlert and S. Grimme., J. Chem. Theory Comput., 2019,
     15, 1652-1671. DOI: 10.1021/acs.jctc.8b01176
   for GFN1-xTB:
   * S. Grimme, C. Bannwarth, P. Shushkov, J. Chem. Theory Comput., 2017,
     13, 1989-2009. DOI: 10.1021/acs.jctc.7b00118
   for GFN0-xTB:
   * P. Pracht, E. Caldeweyher, S. Ehlert, S. Grimme, ChemRxiv, 2019, preprint.
     DOI: 10.26434/chemrxiv.8326202.v1
   for GFN-FF:
   * S. Spicher and S. Grimme, Angew. Chem. Int. Ed., 2020, 59, 15665-15673.
     DOI: 10.1002/anie.202004239
   
   for DFT-D4:
   * E. Caldeweyher, C. Bannwarth and S. Grimme, J. Chem. Phys., 2017,
     147, 034112. DOI: 10.1063/1.4993215
   * E. Caldeweyher, S. Ehlert, A. Hansen, H. Neugebauer, S. Spicher,
     C. Bannwarth and S. Grimme, J. Chem. Phys., 2019, 150, 154122.
     DOI: 10.1063/1.5090222
   * E. Caldeweyher, J.-M. Mewes, S. Ehlert and S. Grimme, Phys. Chem. Chem. Phys.
     2020, 22, 8499-8512. DOI: 10.1039/D0CP00502A
   
   for sTDA-xTB:
   * S. Grimme and C. Bannwarth, J. Chem. Phys., 2016, 145, 054103.
     DOI: 10.1063/1.4959605
   
   in the mass-spec context:
   * V. Asgeirsson, C. Bauer and S. Grimme, Chem. Sci., 2017, 8, 4879.
     DOI: 10.1039/c7sc00601b
   * J. Koopman and S. Grimme, ACS Omega 2019, 4, 12, 15120-15133.
     DOI: 10.1021/acsomega.9b02011
   
   for metadynamics refer to:
   * S. Grimme, J. Chem. Theory Comput., 2019, 155, 2847-2862
     DOI: 10.1021/acs.jctc.9b00143
   
   with help from (in alphabetical order)
   P. Atkinson, C. Bannwarth, F. Bohle, G. Brandenburg, E. Caldeweyher
   M. Checinski, S. Dohm, S. Ehlert, S. Ehrlich, I. Gerasimov, J. Koopman
   C. Lavinge, S. Lehtola, F. März, M. Müller, F. Musil, H. Neugebauer
   J. Pisarek, P. Pracht, J. Seibert, P. Shushkov, S. Spicher, M. Stahn
   T. Strunk, J. Stückrath, T. Rose, and J. Unsleber
   
 * started run on 2021/11/09 at 17:25:23.221     

           -------------------------------------------------
          |                Calculation Setup                |
           -------------------------------------------------

          program call               : xtb init.xyz --gbsa methanol --ohess -chrg -1
          coordinate file            : init.xyz
          omp threads                :                     2
          number of atoms            :                    23
          number of electrons        :                    56
          charge                     :                    -1
          spin                       :                   0.0
          first test random number   :      0.17371278245262

   ID    Z sym.   atoms
    1    6 C      1-3, 5, 8, 11, 19
    2    1 H      4, 6, 7, 9, 10, 12-17, 21-23
    3   35 Br     18
    4    8 O      20

molecular fragmentation (1/2 indicates fragments):
11111111111111111122222
# atoms in fragment 1/2:    18     5
 fragment masses (1/2) :      163.06       31.03
CMA distance (Bohr)    :   9.687
constraining FC (au)   :  0.0500
########################################################################
[WARNING] Please study the warnings concerning your input carefully
-1- prog_main_parseArguments: the use of '-chrg' is discouraged, please use '--chrg' next time
########################################################################

           -------------------------------------------------
          |                 G F N 2 - x T B                 |
           -------------------------------------------------

        Reference                      10.1021/acs.jctc.8b01176
      * Hamiltonian:
        H0-scaling (s, p, d)           1.850000    2.230000    2.230000
        zeta-weighting                 0.500000
      * Dispersion:
        s8                             2.700000
        a1                             0.520000
        a2                             5.000000
        s9                             5.000000
      * Repulsion:
        kExp                           1.500000    1.000000
        rExp                           1.000000
      * Coulomb:
        alpha                          2.000000
        third order                    shell-resolved
        anisotropic                    true
        a3                             3.000000
        a5                             4.000000
        cn-shift                       1.200000
        cn-exp                         4.000000
        max-rad                        5.000000

      * Solvation model:               GBSA
        Solvent                        methanol
        Parameter file                 internal GFN2-xTB/GBSA
        Dielectric constant                3.2700E+01
        Reference state                gsolv [1 M gas/solution]
        Free energy shift                  3.3569E-03 Eh       2.1065E+00 kcal/mol
        Temperature                        2.9815E+02 K
        Density                            7.9200E-01 kg/L
        Solvent mass                       3.2040E+01 g/mol
        Interaction kernel             Still
        Born radius scaling (c1)           1.6087E+00
        Born radii integrator          GBOBC
        Born offset                        5.6550E-04 a0       1.0686E-03 AA
        H-bond correction              true
        Ion screening                  false
        Surface tension                    1.0000E-05 Eh       1.5569E+01 dyn/cm
        Grid points                               230 per atom

          ...................................................
          :                      SETUP                      :
          :.................................................:
          :  # basis functions                  56          :
          :  # atomic orbitals                  55          :
          :  # shells                           33          :
          :  # electrons                        56          :
          :  max. iterations                   250          :
          :  Hamiltonian                  GFN2-xTB          :
          :  restarted?                      false          :
          :  GBSA solvation                   true          :
          :  PC potential                    false          :
          :  electronic temp.          300.0000000     K    :
          :  accuracy                    1.0000000          :
          :  -> integral cutoff          0.2500000E+02      :
          :  -> integral neglect         0.1000000E-07      :
          :  -> SCF convergence          0.1000000E-05 Eh   :
          :  -> wf. convergence          0.1000000E-03 e    :
          :  Broyden damping             0.4000000          :
          ...................................................

 iter      E             dE          RMSdq      gap      omega  full diag
   1    -30.6867744 -0.306868E+02  0.450E+00    5.64       0.0  T
   2    -30.8373378 -0.150563E+00  0.262E+00    3.53       1.0  T
   3    -30.8471564 -0.981855E-02  0.123E+00    2.56       1.0  T
   4    -30.8502177 -0.306137E-02  0.759E-01    1.67       1.0  T
   5    -30.8512238 -0.100601E-02  0.456E-01    1.66       1.0  T
   6    -30.8518382 -0.614477E-03  0.248E-01    1.79       1.0  T
   7    -30.8520129 -0.174616E-03  0.149E-01    1.76       1.0  T
   8    -30.8521038 -0.909641E-04  0.505E-02    1.77       1.0  T
   9    -30.8521101 -0.629998E-05  0.171E-02    1.73       1.2  T
  10    -30.8521109 -0.766497E-06  0.929E-03    1.72       2.2  T
  11    -30.8521111 -0.228784E-06  0.419E-03    1.72       5.0  T
  12    -30.8521111 -0.390342E-07  0.211E-03    1.72       9.9  T
  13    -30.8521112 -0.127955E-07  0.657E-04    1.72      31.7  T
  14    -30.8521112 -0.708599E-09  0.240E-04    1.72      86.8  T

   *** convergence criteria satisfied after 14 iterations ***

         #    Occupation            Energy/Eh            Energy/eV
      -------------------------------------------------------------
         1        2.0000           -0.8326059             -22.6564
       ...           ...                  ...                  ...
        22        2.0000           -0.4251739             -11.5696
        23        2.0000           -0.4185525             -11.3894
        24        2.0000           -0.4022663             -10.9462
        25        2.0000           -0.3999858             -10.8842
        26        2.0000           -0.3940142             -10.7217
        27        2.0000           -0.2839014              -7.7254
        28        2.0000           -0.2838405              -7.7237 (HOMO)
        29                         -0.2206728              -6.0048 (LUMO)
        30                         -0.0473125              -1.2874
        31                          0.0277378               0.7548
        32                          0.0413704               1.1257
        33                          0.0467764               1.2729
       ...                                ...                  ...
        55                          0.3560031               9.6873
      -------------------------------------------------------------
                  HL-Gap            0.0631677 Eh            1.7189 eV
             Fermi-level           -0.2519417 Eh           -6.8557 eV

 SCC (total)                   0 d,  0 h,  0 min,  0.027 sec
 SCC setup                      ...        0 min,  0.001 sec (  3.289%)
 Dispersion                     ...        0 min,  0.000 sec (  0.746%)
 classical contributions        ...        0 min,  0.000 sec (  0.358%)
 integral evaluation            ...        0 min,  0.004 sec ( 13.800%)
 iterations                     ...        0 min,  0.016 sec ( 58.673%)
 molecular gradient             ...        0 min,  0.006 sec ( 22.436%)
 printout                       ...        0 min,  0.000 sec (  0.523%)

         :::::::::::::::::::::::::::::::::::::::::::::::::::::
         ::                     SUMMARY                     ::
         :::::::::::::::::::::::::::::::::::::::::::::::::::::
         :: total energy             -30.524323659910 Eh    ::
         :: total w/o Gsasa/hb       -30.512473394907 Eh    ::
         :: gradient norm              0.135981805605 Eh/a0 ::
         :: HOMO-LUMO gap              1.718880408324 eV    ::
         ::.................................................::
         :: SCC energy               -30.852111163041 Eh    ::
         :: -> isotropic ES            0.259959643480 Eh    ::
         :: -> anisotropic ES         -0.001818603400 Eh    ::
         :: -> anisotropic XC          0.000553283386 Eh    ::
         :: -> dispersion             -0.016557868380 Eh    ::
         :: -> Gsolv                  -0.130174296939 Eh    ::
         ::    -> Gborn               -0.118324031936 Eh    ::
         ::    -> Gsasa               -0.013037370603 Eh    ::
         ::    -> Ghb                 -0.002169823923 Eh    ::
         ::    -> Gshift               0.003356929523 Eh    ::
         :: repulsion energy           0.327646046941 Eh    ::
         :: add. restraining           0.000000000000 Eh    ::
         :: total charge              -1.000000000000 e     ::
         :::::::::::::::::::::::::::::::::::::::::::::::::::::

      ----------------------------------------------------------- 
     |                   =====================                   |
     |                        A N C O P T                        |
     |                   =====================                   |
     |               Approximate Normal Coordinate               |
     |                Rational Function Optimizer                |
      ----------------------------------------------------------- 

          ...................................................
          :                      SETUP                      :
          :.................................................:
          :   optimization level            normal          :
          :   max. optcycles                   200          :
          :   ANC micro-cycles                  20          :
          :   degrees of freedom                63          :
          :.................................................:
          :   RF solver                   davidson          :
          :   write xtbopt.log                true          :
          :   linear?                        false          :
          :   energy convergence         0.5000000E-05 Eh   :
          :   grad. convergence          0.1000000E-02 Eh/α :
          :   maximium RF displ.         1.0000000          :
          :   Hlow (freq-cutoff)         0.1000000E-01      :
          :   Hmax (freq-cutoff)         5.0000000          :
          :   S6 in model hess.         20.0000000          :
          ...................................................

generating ANC from model Hessian ...
Using Lindh-Hessian (1995)
 Shifting diagonal of input Hessian by   9.845248700601173E-003
 Lowest  eigenvalues of input Hessian
    0.000000    0.000000    0.000000    0.000000    0.000000    0.000000
    0.010000    0.010115    0.010134    0.010179    0.010414    0.011119
    0.015494    0.017890    0.019199    0.022720    0.025765    0.031756
 Highest eigenvalues
    1.165877    1.172776    1.203544    1.232280    1.244727    1.273388
 

........................................................................
.............................. CYCLE    1 ..............................
........................................................................
   1    -30.8521112 -0.308521E+02  0.437E-05    1.72       0.0  T
   2    -30.8521112 -0.160227E-11  0.287E-05    1.72     727.6  T
   3    -30.8521112 -0.945022E-12  0.850E-06    1.72    2453.5  T
     SCC iter.                  ...        0 min,  0.003 sec
     gradient                   ...        0 min,  0.007 sec
 * total energy  :   -30.5243237 Eh     change       -0.2010623E-09 Eh
   gradient norm :     0.1359846 Eh/α   predicted     0.0000000E+00 (-100.00%)
   displ. norm   :     0.3286704 α      lambda       -0.3374038E-01
   maximum displ.:     0.2159946 α      in ANC's #33, #32, #43, ...

........................................................................
.............................. CYCLE    2 ..............................
........................................................................
   1    -30.8742892 -0.308743E+02  0.550E-01    1.64       0.0  T
   2    -30.8762452 -0.195601E-02  0.253E-01    1.68       1.0  T
   3    -30.8762986 -0.534011E-04  0.140E-01    1.76       1.0  T
   4    -30.8763180 -0.194435E-04  0.280E-02    1.82       1.0  T
   5    -30.8763196 -0.160277E-05  0.166E-02    1.82       1.3  T
   6    -30.8763203 -0.681868E-06  0.105E-02    1.82       2.0  T
   7    -30.8763207 -0.412408E-06  0.523E-03    1.82       4.0  T
   8    -30.8763208 -0.790309E-07  0.290E-03    1.82       7.2  T
   9    -30.8763208 -0.359836E-07  0.493E-04    1.82      42.3  T
  10    -30.8763208 -0.123098E-08  0.244E-04    1.82      85.5  T
     SCC iter.                  ...        0 min,  0.012 sec
     gradient                   ...        0 min,  0.006 sec
 * total energy  :   -30.5517228 Eh     change       -0.2739917E-01 Eh
   gradient norm :     0.0973677 Eh/α   predicted    -0.1869283E-01 ( -31.78%)
   displ. norm   :     0.3628393 α      lambda       -0.3143418E-01
   maximum displ.:     0.2432004 α      in ANC's #50, #43, #33, ...

........................................................................
.............................. CYCLE    3 ..............................
........................................................................
   1    -30.8904669 -0.308905E+02  0.899E-01    1.61       0.0  T
   2    -30.8957445 -0.527755E-02  0.327E-01    2.20       1.0  T
   3    -30.8960167 -0.272211E-03  0.169E-01    2.48       1.0  T
   4    -30.8960518 -0.351284E-04  0.542E-02    2.65       1.0  T
   5    -30.8960562 -0.437681E-05  0.131E-02    2.63       1.6  T
   6    -30.8960565 -0.302707E-06  0.940E-03    2.64       2.2  T
   7    -30.8960567 -0.239547E-06  0.351E-03    2.63       5.9  T
   8    -30.8960568 -0.285493E-07  0.232E-03    2.64       9.0  T
   9    -30.8960568 -0.166477E-07  0.666E-04    2.63      31.3  T
  10    -30.8960568 -0.100456E-08  0.309E-04    2.63      67.5  T
     SCC iter.                  ...        0 min,  0.010 sec
     gradient                   ...        0 min,  0.007 sec
 * total energy  :   -30.5521260 Eh     change       -0.4031990E-03 Eh
   gradient norm :     0.1494220 Eh/α   predicted    -0.1778629E-01 (4311.29%)
   displ. norm   :     0.2392027 α      lambda       -0.3410081E-01
   maximum displ.:     0.1578820 α      in ANC's #43, #33, #50, ...

........................................................................
.............................. CYCLE    4 ..............................
........................................................................
   1    -30.8817278 -0.308817E+02  0.505E-01    2.88       0.0  T
   2    -30.8832972 -0.156941E-02  0.207E-01    2.56       1.0  T
   3    -30.8833934 -0.962052E-04  0.113E-01    2.38       1.0  T
   4    -30.8834087 -0.152469E-04  0.332E-02    2.25       1.0  T
   5    -30.8834107 -0.208721E-05  0.855E-03    2.27       2.4  T
   6    -30.8834108 -0.936255E-07  0.618E-03    2.27       3.4  T
   7    -30.8834110 -0.124217E-06  0.240E-03    2.27       8.7  T
   8    -30.8834110 -0.970907E-08  0.157E-03    2.27      13.3  T
   9    -30.8834110 -0.946149E-08  0.414E-04    2.27      50.4  T
  10    -30.8834110 -0.605286E-09  0.237E-04    2.27      88.2  T
     SCC iter.                  ...        0 min,  0.011 sec
     gradient                   ...        0 min,  0.006 sec
 * total energy  :   -30.5633602 Eh     change       -0.1123419E-01 Eh
   gradient norm :     0.0383807 Eh/α   predicted    -0.1802616E-01 (  60.46%)
   displ. norm   :     0.1296666 α      lambda       -0.2048880E-02
   maximum displ.:     0.0871855 α      in ANC's #5, #1, #50, ...

........................................................................
.............................. CYCLE    5 ..............................
........................................................................
   1    -30.8841703 -0.308842E+02  0.168E-01    2.28       0.0  T
   2    -30.8842479 -0.776131E-04  0.751E-02    2.38       1.0  T
   3    -30.8842557 -0.780306E-05  0.276E-02    2.45       1.0  T
   4    -30.8842560 -0.304077E-06  0.918E-03    2.47       2.3  T
   5    -30.8842561 -0.117121E-06  0.230E-03    2.46       9.1  T
   6    -30.8842562 -0.112287E-07  0.134E-03    2.46      15.5  T
   7    -30.8842562 -0.655967E-08  0.557E-04    2.46      37.4  T
   8    -30.8842562 -0.697042E-09  0.287E-04    2.46      72.7  T
     SCC iter.                  ...        0 min,  0.007 sec
     gradient                   ...        0 min,  0.007 sec
 * total energy  :   -30.5648349 Eh     change       -0.1474634E-02 Eh
   gradient norm :     0.0155589 Eh/α   predicted    -0.1041659E-02 ( -29.36%)
   displ. norm   :     0.2212845 α      lambda       -0.8906108E-03
   maximum displ.:     0.1541170 α      in ANC's #5, #1, #3, ...

........................................................................
.............................. CYCLE    6 ..............................
........................................................................
   1    -30.8844492 -0.308844E+02  0.135E-01    2.46       0.0  T
   2    -30.8845059 -0.567253E-04  0.585E-02    2.55       1.0  T
   3    -30.8845125 -0.657852E-05  0.218E-02    2.61       1.0  T
   4    -30.8845127 -0.252265E-06  0.874E-03    2.62       2.4  T
   5    -30.8845128 -0.852112E-07  0.248E-03    2.61       8.4  T
   6    -30.8845128 -0.131004E-07  0.141E-03    2.61      14.7  T
   7    -30.8845128 -0.630497E-08  0.583E-04    2.61      35.8  T
   8    -30.8845128 -0.559552E-09  0.202E-04    2.61     103.2  T
     SCC iter.                  ...        0 min,  0.008 sec
     gradient                   ...        0 min,  0.009 sec
 * total energy  :   -30.5653662 Eh     change       -0.5313214E-03 Eh
   gradient norm :     0.0057087 Eh/α   predicted    -0.4671891E-03 ( -12.07%)
   displ. norm   :     0.2259792 α      lambda       -0.3367534E-03
   maximum displ.:     0.1681868 α      in ANC's #5, #1, #3, ...

........................................................................
.............................. CYCLE    7 ..............................
........................................................................
   1    -30.8839209 -0.308839E+02  0.566E-02    2.63       0.0  T
   2    -30.8839233 -0.245536E-05  0.314E-02    2.65       1.0  T
   3    -30.8839239 -0.586515E-06  0.928E-03    2.66       2.2  T
   4    -30.8839241 -0.147253E-06  0.597E-03    2.66       3.5  T
   5    -30.8839242 -0.998536E-07  0.351E-03    2.66       5.9  T
   6    -30.8839242 -0.306193E-07  0.246E-03    2.66       8.5  T
   7    -30.8839242 -0.238232E-07  0.683E-04    2.66      30.5  T
   8    -30.8839242 -0.992149E-09  0.265E-04    2.66      78.6  T
     SCC iter.                  ...        0 min,  0.009 sec
     gradient                   ...        0 min,  0.006 sec
 * total energy  :   -30.5656816 Eh     change       -0.3153833E-03 Eh
   gradient norm :     0.0083676 Eh/α   predicted    -0.1769808E-03 ( -43.88%)
   displ. norm   :     0.4265586 α      lambda       -0.6780090E-03
   maximum displ.:     0.2817535 α      in ANC's #5, #1, #3, ...

........................................................................
.............................. CYCLE    8 ..............................
........................................................................
   1    -30.8826792 -0.308827E+02  0.953E-02    2.70       0.0  T
   2    -30.8826820 -0.279493E-05  0.535E-02    2.70       1.0  T
   3    -30.8826829 -0.970656E-06  0.153E-02    2.71       1.4  T
   4    -30.8826835 -0.559325E-06  0.110E-02    2.70       1.9  T
   5    -30.8826838 -0.351613E-06  0.609E-03    2.70       3.4  T
   6    -30.8826840 -0.106203E-06  0.376E-03    2.70       5.5  T
   7    -30.8826840 -0.525632E-07  0.102E-03    2.70      20.5  T
   8    -30.8826840 -0.252687E-08  0.467E-04    2.70      44.7  T
   9    -30.8826840 -0.472891E-09  0.160E-04    2.70     130.7  T
     SCC iter.                  ...        0 min,  0.011 sec
     gradient                   ...        0 min,  0.006 sec
 * total energy  :   -30.5663209 Eh     change       -0.6393602E-03 Eh
   gradient norm :     0.0093011 Eh/α   predicted    -0.4006875E-03 ( -37.33%)
   displ. norm   :     0.8170834 α      lambda       -0.1285894E-02
   maximum displ.:     0.5345742 α      in ANC's #1, #5, #3, ...

........................................................................
.............................. CYCLE    9 ..............................
........................................................................
   1    -30.8800065 -0.308800E+02  0.179E-01    2.78       0.0  T
   2    -30.8800201 -0.135954E-04  0.986E-02    2.77       1.0  T
   3    -30.8800238 -0.374525E-05  0.304E-02    2.76       1.0  T
   4    -30.8800258 -0.197420E-05  0.214E-02    2.75       1.0  T
   5    -30.8800270 -0.119925E-05  0.123E-02    2.75       1.7  T
   6    -30.8800274 -0.452969E-06  0.835E-03    2.75       2.5  T
   7    -30.8800277 -0.246943E-06  0.208E-03    2.75      10.0  T
   8    -30.8800277 -0.108161E-07  0.101E-03    2.75      20.6  T
   9    -30.8800277 -0.217738E-08  0.361E-04    2.75      57.7  T
  10    -30.8800277 -0.278622E-09  0.232E-04    2.75      89.8  T
     SCC iter.                  ...        0 min,  0.011 sec
     gradient                   ...        0 min,  0.008 sec
 * total energy  :   -30.5673708 Eh     change       -0.1049880E-02 Eh
   gradient norm :     0.0179277 Eh/α   predicted    -0.1072196E-02 (   2.13%)
   displ. norm   :     0.6947394 α      lambda       -0.1273999E-02
   maximum displ.:     0.5359878 α      in ANC's #1, #5, #3, ...

........................................................................
.............................. CYCLE   10 ..............................
........................................................................
   1    -30.8806458 -0.308806E+02  0.135E-01    2.81       0.0  T
   2    -30.8806533 -0.746207E-05  0.734E-02    2.83       1.0  T
   3    -30.8806556 -0.229663E-05  0.231E-02    2.84       1.0  T
   4    -30.8806568 -0.122286E-05  0.173E-02    2.83       1.2  T
   5    -30.8806577 -0.886067E-06  0.102E-02    2.83       2.0  T
   6    -30.8806581 -0.345325E-06  0.620E-03    2.83       3.4  T
   7    -30.8806582 -0.125761E-06  0.146E-03    2.83      14.3  T
   8    -30.8806582 -0.504303E-08  0.707E-04    2.83      29.5  T
   9    -30.8806582 -0.107120E-08  0.255E-04    2.83      81.8  T
     SCC iter.                  ...        0 min,  0.009 sec
     gradient                   ...        0 min,  0.007 sec
 * total energy  :   -30.5684654 Eh     change       -0.1094592E-02 Eh
   gradient norm :     0.0180451 Eh/α   predicted    -0.9444676E-03 ( -13.72%)
   displ. norm   :     0.3328400 α      lambda       -0.1309746E-02
   maximum displ.:     0.2903654 α      in ANC's #1, #3, #4, ...

........................................................................
.............................. CYCLE   11 ..............................
........................................................................
   1    -30.8875604 -0.308876E+02  0.103E-01    2.84       0.0  T
   2    -30.8875679 -0.748298E-05  0.599E-02    2.83       1.0  T
   3    -30.8875695 -0.160831E-05  0.148E-02    2.81       1.4  T
   4    -30.8875699 -0.344175E-06  0.101E-02    2.82       2.1  T
   5    -30.8875701 -0.258105E-06  0.559E-03    2.82       3.7  T
   6    -30.8875702 -0.714590E-07  0.383E-03    2.82       5.4  T
   7    -30.8875703 -0.710620E-07  0.844E-04    2.82      24.7  T
   8    -30.8875703 -0.118049E-08  0.458E-04    2.82      45.5  T
     SCC iter.                  ...        0 min,  0.008 sec
     gradient                   ...        0 min,  0.006 sec
 * total energy  :   -30.5693033 Eh     change       -0.8378614E-03 Eh
   gradient norm :     0.0104155 Eh/α   predicted    -0.7274235E-03 ( -13.18%)
   displ. norm   :     0.5437324 α      lambda       -0.1030035E-02
   maximum displ.:     0.3911366 α      in ANC's #1, #5, #3, ...

........................................................................
.............................. CYCLE   12 ..............................
........................................................................
   1    -30.8891853 -0.308892E+02  0.128E-01    2.90       0.0  T
   2    -30.8891926 -0.733263E-05  0.713E-02    2.90       1.0  T
   3    -30.8891951 -0.251488E-05  0.211E-02    2.90       1.0  T
   4    -30.8891958 -0.686350E-06  0.150E-02    2.90       1.4  T
   5    -30.8891964 -0.599458E-06  0.926E-03    2.90       2.3  T
   6    -30.8891967 -0.255576E-06  0.529E-03    2.90       3.9  T
   7    -30.8891968 -0.994429E-07  0.138E-03    2.89      15.1  T
   8    -30.8891968 -0.701766E-08  0.743E-04    2.89      28.1  T
   9    -30.8891968 -0.121667E-08  0.350E-04    2.89      59.5  T
     SCC iter.                  ...        0 min,  0.010 sec
     gradient                   ...        0 min,  0.007 sec
 * total energy  :   -30.5699954 Eh     change       -0.6921255E-03 Eh
   gradient norm :     0.0062590 Eh/α   predicted    -0.6672845E-03 (  -3.59%)
   displ. norm   :     0.2878090 α      lambda       -0.2738406E-03
   maximum displ.:     0.2022248 α      in ANC's #1, #3, #5, ...

........................................................................
.............................. CYCLE   13 ..............................
........................................................................
   1    -30.8898767 -0.308899E+02  0.644E-02    2.94       0.0  T
   2    -30.8898794 -0.270144E-05  0.373E-02    2.96       1.0  T
   3    -30.8898802 -0.808500E-06  0.124E-02    2.97       1.7  T
   4    -30.8898805 -0.346732E-06  0.865E-03    2.97       2.4  T
   5    -30.8898807 -0.194421E-06  0.559E-03    2.97       3.7  T
   6    -30.8898808 -0.975411E-07  0.313E-03    2.97       6.7  T
   7    -30.8898809 -0.364859E-07  0.692E-04    2.96      30.1  T
   8    -30.8898809 -0.104161E-08  0.342E-04    2.96      61.0  T
     SCC iter.                  ...        0 min,  0.009 sec
     gradient                   ...        0 min,  0.007 sec
 * total energy  :   -30.5701438 Eh     change       -0.1484269E-03 Eh
   gradient norm :     0.0047845 Eh/α   predicted    -0.1482645E-03 (  -0.11%)
   displ. norm   :     0.0998762 α      lambda       -0.1196288E-03
   maximum displ.:     0.0706406 α      in ANC's #2, #3, #8, ...

........................................................................
.............................. CYCLE   14 ..............................
........................................................................
   1    -30.8902277 -0.308902E+02  0.310E-02    2.97       0.0  T
   2    -30.8902280 -0.282113E-06  0.188E-02    2.97       1.1  T
   3    -30.8902281 -0.848030E-07  0.427E-03    2.96       4.9  T
   4    -30.8902282 -0.774533E-07  0.274E-03    2.96       7.6  T
   5    -30.8902282 -0.165889E-07  0.145E-03    2.96      14.4  T
   6    -30.8902282 -0.553132E-08  0.789E-04    2.96      26.4  T
   7    -30.8902282 -0.167454E-08  0.231E-04    2.96      90.3  T
     SCC iter.                  ...        0 min,  0.007 sec
     gradient                   ...        0 min,  0.007 sec
 * total energy  :   -30.5702408 Eh     change       -0.9700944E-04 Eh
   gradient norm :     0.0037430 Eh/α   predicted    -0.6041215E-04 ( -37.73%)
   displ. norm   :     0.2211080 α      lambda       -0.2185917E-03
   maximum displ.:     0.1506137 α      in ANC's #2, #3, #8, ...

........................................................................
.............................. CYCLE   15 ..............................
........................................................................
   1    -30.8902371 -0.308902E+02  0.700E-02    2.96       0.0  T
   2    -30.8902381 -0.981278E-06  0.421E-02    2.96       1.0  T
   3    -30.8902384 -0.308908E-06  0.754E-03    2.95       2.8  T
   4    -30.8902386 -0.206519E-06  0.508E-03    2.95       4.1  T
   5    -30.8902387 -0.553600E-07  0.291E-03    2.95       7.2  T
   6    -30.8902387 -0.211442E-07  0.176E-03    2.95      11.9  T
   7    -30.8902387 -0.804582E-08  0.414E-04    2.95      50.4  T
   8    -30.8902387 -0.289241E-09  0.173E-04    2.95     120.7  T
     SCC iter.                  ...        0 min,  0.012 sec
     gradient                   ...        0 min,  0.009 sec
 * total energy  :   -30.5703681 Eh     change       -0.1272498E-03 Eh
   gradient norm :     0.0057226 Eh/α   predicted    -0.1146422E-03 (  -9.91%)
   displ. norm   :     0.2127414 α      lambda       -0.1430968E-03
   maximum displ.:     0.1428957 α      in ANC's #2, #3, #1, ...

........................................................................
.............................. CYCLE   16 ..............................
........................................................................
   1    -30.8892535 -0.308893E+02  0.543E-02    2.95       0.0  T
   2    -30.8892545 -0.100261E-05  0.335E-02    2.95       1.0  T
   3    -30.8892549 -0.368340E-06  0.753E-03    2.94       2.8  T
   4    -30.8892551 -0.202901E-06  0.501E-03    2.94       4.2  T
   5    -30.8892552 -0.486379E-07  0.290E-03    2.94       7.2  T
   6    -30.8892552 -0.229244E-07  0.151E-03    2.94      13.8  T
   7    -30.8892552 -0.555995E-08  0.343E-04    2.94      60.9  T
   8    -30.8892552 -0.176271E-09  0.113E-04    2.94     184.3  T
     SCC iter.                  ...        0 min,  0.008 sec
     gradient                   ...        0 min,  0.008 sec
 * total energy  :   -30.5704592 Eh     change       -0.9113486E-04 Eh
   gradient norm :     0.0087351 Eh/α   predicted    -0.7478919E-04 ( -17.94%)
   displ. norm   :     0.2162099 α      lambda       -0.1489664E-03
   maximum displ.:     0.1442780 α      in ANC's #2, #3, #1, ...

........................................................................
.............................. CYCLE   17 ..............................
........................................................................
   1    -30.8889681 -0.308890E+02  0.450E-02    2.94       0.0  T
   2    -30.8889687 -0.577082E-06  0.280E-02    2.94       1.0  T
   3    -30.8889690 -0.253061E-06  0.614E-03    2.95       3.4  T
   4    -30.8889691 -0.125035E-06  0.423E-03    2.95       4.9  T
   5    -30.8889691 -0.392623E-07  0.226E-03    2.95       9.2  T
   6    -30.8889691 -0.121238E-07  0.124E-03    2.95      16.8  T
   7    -30.8889692 -0.479477E-08  0.383E-04    2.95      54.4  T
   8    -30.8889692 -0.260830E-09  0.136E-04    2.95     152.9  T
     SCC iter.                  ...        0 min,  0.010 sec
     gradient                   ...        0 min,  0.007 sec
 * total energy  :   -30.5705902 Eh     change       -0.1309638E-03 Eh
   gradient norm :     0.0082229 Eh/α   predicted    -0.7796751E-04 ( -40.47%)
   displ. norm   :     0.4809810 α      lambda       -0.4053492E-03
   maximum displ.:     0.3182084 α      in ANC's #2, #3, #1, ...

........................................................................
.............................. CYCLE   18 ..............................
........................................................................
   1    -30.8882374 -0.308882E+02  0.100E-01    2.94       0.0  T
   2    -30.8882397 -0.234907E-05  0.620E-02    2.95       1.0  T
   3    -30.8882411 -0.133118E-05  0.123E-02    2.96       1.7  T
   4    -30.8882413 -0.283293E-06  0.862E-03    2.96       2.4  T
   5    -30.8882415 -0.187651E-06  0.468E-03    2.96       4.5  T
   6    -30.8882416 -0.484351E-07  0.247E-03    2.96       8.5  T
   7    -30.8882416 -0.219217E-07  0.845E-04    2.96      24.7  T
   8    -30.8882416 -0.123036E-08  0.303E-04    2.96      68.9  T
     SCC iter.                  ...        0 min,  0.010 sec
     gradient                   ...        0 min,  0.009 sec
 * total energy  :   -30.5708511 Eh     change       -0.2609740E-03 Eh
   gradient norm :     0.0055169 Eh/α   predicted    -0.2495685E-03 (  -4.37%)
   displ. norm   :     0.1766342 α      lambda       -0.1091256E-03
   maximum displ.:     0.1057957 α      in ANC's #2, #3, #1, ...

........................................................................
.............................. CYCLE   19 ..............................
........................................................................
   1    -30.8894111 -0.308894E+02  0.390E-02    2.96       0.0  T
   2    -30.8894119 -0.806745E-06  0.227E-02    2.97       1.0  T
   3    -30.8894121 -0.172335E-06  0.531E-03    2.98       3.9  T
   4    -30.8894121 -0.398610E-07  0.305E-03    2.98       6.8  T
   5    -30.8894121 -0.183790E-07  0.183E-03    2.98      11.4  T
   6    -30.8894122 -0.734320E-08  0.122E-03    2.98      17.1  T
   7    -30.8894122 -0.516787E-08  0.314E-04    2.98      66.3  T
   8    -30.8894122 -0.190425E-09  0.126E-04    2.98     165.6  T
     SCC iter.                  ...        0 min,  0.009 sec
     gradient                   ...        0 min,  0.010 sec
 * total energy  :   -30.5709203 Eh     change       -0.6920104E-04 Eh
   gradient norm :     0.0038959 Eh/α   predicted    -0.5626994E-04 ( -18.69%)
   displ. norm   :     0.3053993 α      lambda       -0.8788027E-04
   maximum displ.:     0.2027462 α      in ANC's #2, #3, #1, ...

........................................................................
.............................. CYCLE   20 ..............................
........................................................................
   1    -30.8880864 -0.308881E+02  0.700E-02    3.00       0.0  T
   2    -30.8880889 -0.250557E-05  0.427E-02    3.00       1.0  T
   3    -30.8880895 -0.662900E-06  0.100E-02    2.99       2.1  T
   4    -30.8880897 -0.198987E-06  0.642E-03    2.99       3.2  T
   5    -30.8880898 -0.640491E-07  0.403E-03    2.99       5.2  T
   6    -30.8880899 -0.536671E-07  0.207E-03    2.99      10.1  T
   7    -30.8880899 -0.116460E-07  0.454E-04    2.99      46.0  T
   8    -30.8880899 -0.431722E-09  0.225E-04    2.99      92.6  T
     SCC iter.                  ...        0 min,  0.008 sec
     gradient                   ...        0 min,  0.010 sec
 * total energy  :   -30.5709359 Eh     change       -0.1557308E-04 Eh
   gradient norm :     0.0071792 Eh/α   predicted    -0.4804098E-04 ( 208.49%)
   displ. norm   :     0.0521784 α      lambda       -0.1039364E-03
   maximum displ.:     0.0232325 α      in ANC's #1, #4, #10, ...
 * RMSD in coord.:     0.9816230 α      energy gain  -0.4661225E-01 Eh

generating ANC from model Hessian ...
Using Lindh-Hessian (1995)
 Shifting diagonal of input Hessian by   9.579372003148146E-003
 Lowest  eigenvalues of input Hessian
    0.000000    0.000000    0.000000    0.000000    0.000000    0.000000
    0.010000    0.010089    0.010938    0.011188    0.011708    0.015516
    0.016289    0.017796    0.021428    0.023641    0.025791    0.034852
 Highest eigenvalues
    1.174922    1.201528    1.233525    1.247106    1.270888    1.698534
 

........................................................................
.............................. CYCLE   21 ..............................
........................................................................
   1    -30.8904880 -0.308905E+02  0.303E-02    2.99       0.0  T
   2    -30.8904892 -0.125425E-05  0.180E-02    3.00       1.2  T
   3    -30.8904893 -0.997739E-07  0.533E-03    3.00       3.9  T
   4    -30.8904894 -0.424809E-07  0.250E-03    3.00       8.3  T
   5    -30.8904894 -0.115297E-07  0.178E-03    3.00      11.7  T
   6    -30.8904894 -0.100132E-07  0.111E-03    3.00      18.8  T
   7    -30.8904894 -0.447220E-08  0.334E-04    3.00      62.5  T
   8    -30.8904894 -0.376296E-09  0.186E-04    3.00     111.9  T
     SCC iter.                  ...        0 min,  0.008 sec
     gradient                   ...        0 min,  0.008 sec
 * total energy  :   -30.5709891 Eh     change       -0.5323550E-04 Eh
   gradient norm :     0.0024222 Eh/α   predicted     0.0000000E+00 (-100.00%)
   displ. norm   :     0.0278102 α      lambda       -0.2518828E-04
   maximum displ.:     0.0131712 α      in ANC's #6, #3, #5, ...

........................................................................
.............................. CYCLE   22 ..............................
........................................................................
   1    -30.8904078 -0.308904E+02  0.156E-02    3.00       0.0  T
   2    -30.8904079 -0.118392E-06  0.914E-03    2.99       2.3  T
   3    -30.8904080 -0.218545E-07  0.181E-03    2.99      11.5  T
   4    -30.8904080 -0.470825E-08  0.112E-03    2.99      18.6  T
   5    -30.8904080 -0.241366E-08  0.679E-04    2.99      30.7  T
   6    -30.8904080 -0.885017E-09  0.412E-04    2.99      50.7  T
     SCC iter.                  ...        0 min,  0.008 sec
     gradient                   ...        0 min,  0.008 sec
 * total energy  :   -30.5710057 Eh     change       -0.1656275E-04 Eh
   gradient norm :     0.0009185 Eh/α   predicted    -0.1268224E-04 ( -23.43%)
   displ. norm   :     0.0694568 α      lambda       -0.1677717E-04
   maximum displ.:     0.0349498 α      in ANC's #3, #5, #6, ...

........................................................................
.............................. CYCLE   23 ..............................
........................................................................
   1    -30.8902026 -0.308902E+02  0.246E-02    2.99       0.0  T
   2    -30.8902027 -0.178351E-06  0.150E-02    2.99       1.4  T
   3    -30.8902028 -0.729762E-07  0.334E-03    2.99       6.2  T
   4    -30.8902028 -0.317242E-07  0.220E-03    2.98       9.5  T
   5    -30.8902029 -0.101010E-07  0.128E-03    2.99      16.3  T
   6    -30.8902029 -0.369296E-08  0.804E-04    2.98      25.9  T
   7    -30.8902029 -0.176796E-08  0.190E-04    2.98     109.8  T
     SCC iter.                  ...        0 min,  0.007 sec
     gradient                   ...        0 min,  0.007 sec
 * total energy  :   -30.5710214 Eh     change       -0.1568716E-04 Eh
   gradient norm :     0.0012906 Eh/α   predicted    -0.8428327E-05 ( -46.27%)
   displ. norm   :     0.0921257 α      lambda       -0.1520816E-04
   maximum displ.:     0.0493146 α      in ANC's #3, #5, #4, ...

........................................................................
.............................. CYCLE   24 ..............................
........................................................................
   1    -30.8900538 -0.308901E+02  0.349E-02    2.98       0.0  T
   2    -30.8900540 -0.262162E-06  0.212E-02    2.98       1.0  T
   3    -30.8900542 -0.167990E-06  0.436E-03    2.98       4.8  T
   4    -30.8900542 -0.240594E-07  0.284E-03    2.98       7.3  T
   5    -30.8900543 -0.186196E-07  0.183E-03    2.98      11.4  T
   6    -30.8900543 -0.761803E-08  0.109E-03    2.98      19.1  T
   7    -30.8900543 -0.348917E-08  0.200E-04    2.98     104.3  T
   8    -30.8900543 -0.434675E-10  0.745E-05    2.98     280.0  T
     SCC iter.                  ...        0 min,  0.010 sec
     gradient                   ...        0 min,  0.006 sec
 * total energy  :   -30.5710381 Eh     change       -0.1669754E-04 Eh
   gradient norm :     0.0017801 Eh/α   predicted    -0.7635363E-05 ( -54.27%)
   displ. norm   :     0.0985405 α      lambda       -0.1528321E-04
   maximum displ.:     0.0555688 α      in ANC's #3, #5, #4, ...

........................................................................
.............................. CYCLE   25 ..............................
........................................................................
   1    -30.8900923 -0.308901E+02  0.359E-02    2.98       0.0  T
   2    -30.8900925 -0.245272E-06  0.218E-02    2.98       1.0  T
   3    -30.8900927 -0.165594E-06  0.422E-03    2.99       4.9  T
   4    -30.8900927 -0.206134E-07  0.277E-03    2.98       7.5  T
   5    -30.8900927 -0.230305E-07  0.172E-03    2.98      12.1  T
   6    -30.8900927 -0.739228E-08  0.689E-04    2.98      30.3  T
   7    -30.8900927 -0.151185E-08  0.237E-04    2.98      87.9  T
     SCC iter.                  ...        0 min,  0.011 sec
     gradient                   ...        0 min,  0.009 sec
 * total energy  :   -30.5710546 Eh     change       -0.1648524E-04 Eh
   gradient norm :     0.0016879 Eh/α   predicted    -0.7675256E-05 ( -53.44%)
   displ. norm   :     0.1155310 α      lambda       -0.1674454E-04
   maximum displ.:     0.0658269 α      in ANC's #3, #5, #4, ...

........................................................................
.............................. CYCLE   26 ..............................
........................................................................
   1    -30.8901898 -0.308902E+02  0.423E-02    2.99       0.0  T
   2    -30.8901902 -0.390061E-06  0.254E-02    2.99       1.0  T
   3    -30.8901905 -0.286671E-06  0.587E-03    2.99       3.6  T
   4    -30.8901906 -0.434784E-07  0.312E-03    2.99       6.7  T
   5    -30.8901906 -0.247106E-07  0.229E-03    2.99       9.1  T
   6    -30.8901906 -0.134278E-07  0.723E-04    2.99      28.8  T
   7    -30.8901906 -0.209170E-08  0.319E-04    2.99      65.3  T
     SCC iter.                  ...        0 min,  0.007 sec
     gradient                   ...        0 min,  0.007 sec
 * total energy  :   -30.5710745 Eh     change       -0.1989121E-04 Eh
   gradient norm :     0.0014404 Eh/α   predicted    -0.8422285E-05 ( -57.66%)
   displ. norm   :     0.2274123 α      lambda       -0.2806947E-04
   maximum displ.:     0.1298327 α      in ANC's #3, #5, #4, ...

........................................................................
.............................. CYCLE   27 ..............................
........................................................................
   1    -30.8897164 -0.308897E+02  0.791E-02    3.00       0.0  T
   2    -30.8897179 -0.149652E-05  0.482E-02    3.01       1.0  T
   3    -30.8897190 -0.107545E-05  0.107E-02    3.01       1.9  T
   4    -30.8897191 -0.163288E-06  0.600E-03    3.00       3.5  T
   5    -30.8897192 -0.744427E-07  0.412E-03    3.00       5.1  T
   6    -30.8897192 -0.433310E-07  0.126E-03    3.00      16.6  T
   7    -30.8897192 -0.600207E-08  0.577E-04    3.00      36.2  T
   8    -30.8897192 -0.542794E-09  0.228E-04    3.00      91.6  T
     SCC iter.                  ...        0 min,  0.013 sec
     gradient                   ...        0 min,  0.008 sec
 * total energy  :   -30.5711031 Eh     change       -0.2857953E-04 Eh
   gradient norm :     0.0035161 Eh/α   predicted    -0.1436608E-04 ( -49.73%)
   displ. norm   :     0.1364707 α      lambda       -0.3404410E-04
   maximum displ.:     0.0760679 α      in ANC's #3, #5, #1, ...

........................................................................
.............................. CYCLE   28 ..............................
........................................................................
   1    -30.8898528 -0.308899E+02  0.448E-02    3.00       0.0  T
   2    -30.8898533 -0.519982E-06  0.275E-02    3.01       1.0  T
   3    -30.8898537 -0.358711E-06  0.621E-03    3.01       3.4  T
   4    -30.8898537 -0.486514E-07  0.360E-03    3.01       5.8  T
   5    -30.8898537 -0.313796E-07  0.253E-03    3.01       8.2  T
   6    -30.8898538 -0.154588E-07  0.118E-03    3.01      17.7  T
   7    -30.8898538 -0.441481E-08  0.392E-04    3.01      53.2  T
   8    -30.8898538 -0.369372E-09  0.142E-04    3.01     146.4  T
     SCC iter.                  ...        0 min,  0.016 sec
     gradient                   ...        0 min,  0.008 sec
 * total energy  :   -30.5711297 Eh     change       -0.2668599E-04 Eh
   gradient norm :     0.0033807 Eh/α   predicted    -0.1734556E-04 ( -35.00%)
   displ. norm   :     0.2068388 α      lambda       -0.5282173E-04
   maximum displ.:     0.1136352 α      in ANC's #3, #5, #1, ...

........................................................................
.............................. CYCLE   29 ..............................
........................................................................
   1    -30.8897892 -0.308898E+02  0.651E-02    3.01       0.0  T
   2    -30.8897902 -0.963499E-06  0.404E-02    3.01       1.0  T
   3    -30.8897909 -0.749048E-06  0.836E-03    3.01       2.5  T
   4    -30.8897910 -0.914479E-07  0.462E-03    3.01       4.5  T
   5    -30.8897911 -0.484318E-07  0.330E-03    3.01       6.3  T
   6    -30.8897911 -0.274515E-07  0.111E-03    3.01      18.9  T
   7    -30.8897911 -0.455332E-08  0.489E-04    3.01      42.7  T
   8    -30.8897911 -0.582197E-09  0.121E-04    3.01     171.7  T
     SCC iter.                  ...        0 min,  0.009 sec
     gradient                   ...        0 min,  0.006 sec
 * total energy  :   -30.5711707 Eh     change       -0.4095500E-04 Eh
   gradient norm :     0.0036300 Eh/α   predicted    -0.2754383E-04 ( -32.75%)
   displ. norm   :     0.2160755 α      lambda       -0.9141078E-04
   maximum displ.:     0.1241719 α      in ANC's #1, #3, #5, ...

........................................................................
.............................. CYCLE   30 ..............................
........................................................................
   1    -30.8910317 -0.308910E+02  0.630E-02    3.00       0.0  T
   2    -30.8910333 -0.162666E-05  0.391E-02    3.00       1.0  T
   3    -30.8910338 -0.551812E-06  0.736E-03    3.00       2.8  T
   4    -30.8910339 -0.757255E-07  0.503E-03    3.00       4.1  T
   5    -30.8910340 -0.495749E-07  0.215E-03    3.00       9.7  T
   6    -30.8910340 -0.999149E-08  0.132E-03    3.00      15.8  T
   7    -30.8910340 -0.540115E-08  0.399E-04    3.00      52.3  T
   8    -30.8910340 -0.457153E-09  0.187E-04    3.00     111.3  T
     SCC iter.                  ...        0 min,  0.010 sec
     gradient                   ...        0 min,  0.008 sec
 * total energy  :   -30.5712093 Eh     change       -0.3864279E-04 Eh
   gradient norm :     0.0034252 Eh/α   predicted    -0.4784272E-04 (  23.81%)
   displ. norm   :     0.5974312 α      lambda       -0.1675525E-03
   maximum displ.:     0.3275335 α      in ANC's #5, #3, #1, ...

........................................................................
.............................. CYCLE   31 ..............................
........................................................................
   1    -30.8848000 -0.308848E+02  0.197E-01    3.03       0.0  T
   2    -30.8848244 -0.243833E-04  0.121E-01    3.01       1.0  T
   3    -30.8848299 -0.544634E-05  0.278E-02    2.99       1.0  T
   4    -30.8848311 -0.123273E-05  0.158E-02    2.99       1.3  T
   5    -30.8848315 -0.430695E-06  0.839E-03    2.99       2.5  T
   6    -30.8848317 -0.143274E-06  0.547E-03    2.99       3.8  T
   7    -30.8848318 -0.846535E-07  0.130E-03    2.98      16.1  T
   8    -30.8848318 -0.511492E-08  0.616E-04    2.98      33.9  T
   9    -30.8848318 -0.773895E-09  0.104E-04    2.98     200.3  T
     SCC iter.                  ...        0 min,  0.009 sec
     gradient                   ...        0 min,  0.009 sec
 * total energy  :   -30.5709065 Eh     change        0.3028140E-03 Eh
   gradient norm :     0.0187233 Eh/α   predicted    -0.1136923E-03 (-137.55%)
   displ. norm   :     0.3788356 α      lambda       -0.1013402E-02
   maximum displ.:     0.2194259 α      in ANC's #5, #3, #1, ...

........................................................................
.............................. CYCLE   32 ..............................
........................................................................
   1    -30.8905610 -0.308906E+02  0.138E-01    2.95       0.0  T
   2    -30.8905803 -0.193652E-04  0.839E-02    2.97       1.0  T
   3    -30.8905832 -0.288833E-05  0.232E-02    2.98       1.0  T
   4    -30.8905840 -0.734842E-06  0.112E-02    2.99       1.9  T
   5    -30.8905842 -0.224384E-06  0.609E-03    2.99       3.4  T
   6    -30.8905843 -0.739963E-07  0.397E-03    2.99       5.3  T
   7    -30.8905843 -0.435975E-07  0.102E-03    2.99      20.4  T
   8    -30.8905843 -0.314523E-08  0.513E-04    2.99      40.6  T
   9    -30.8905843 -0.567052E-09  0.905E-05    2.99     230.4  T
     SCC iter.                  ...        0 min,  0.009 sec
     gradient                   ...        0 min,  0.009 sec
 * total energy  :   -30.5712575 Eh     change       -0.3510156E-03 Eh
   gradient norm :     0.0017512 Eh/α   predicted    -0.5793872E-03 (  65.06%)
   displ. norm   :     0.0433146 α      lambda       -0.1737923E-04
   maximum displ.:     0.0235448 α      in ANC's #5, #2, #1, ...

........................................................................
.............................. CYCLE   33 ..............................
........................................................................
   1    -30.8903101 -0.308903E+02  0.185E-02    2.99       0.0  T
   2    -30.8903105 -0.351655E-06  0.111E-02    2.98       1.9  T
   3    -30.8903105 -0.276155E-07  0.292E-03    2.98       7.1  T
   4    -30.8903105 -0.166013E-07  0.120E-03    2.98      17.4  T
   5    -30.8903105 -0.366559E-08  0.881E-04    2.98      23.7  T
   6    -30.8903105 -0.212217E-08  0.566E-04    2.98      36.8  T
     SCC iter.                  ...        0 min,  0.007 sec
     gradient                   ...        0 min,  0.007 sec
 * total energy  :   -30.5712723 Eh     change       -0.1472470E-04 Eh
   gradient norm :     0.0015817 Eh/α   predicted    -0.8697823E-05 ( -40.93%)
   displ. norm   :     0.0952979 α      lambda       -0.1262481E-04
   maximum displ.:     0.0580554 α      in ANC's #1, #5, #2, ...

........................................................................
.............................. CYCLE   34 ..............................
........................................................................
   1    -30.8899176 -0.308899E+02  0.290E-02    2.98       0.0  T
   2    -30.8899178 -0.179476E-06  0.180E-02    2.98       1.2  T
   3    -30.8899178 -0.694245E-07  0.310E-03    2.98       6.7  T
   4    -30.8899179 -0.309171E-07  0.187E-03    2.98      11.2  T
   5    -30.8899179 -0.520939E-08  0.898E-04    2.98      23.2  T
   6    -30.8899179 -0.172275E-08  0.613E-04    2.98      34.0  T
     SCC iter.                  ...        0 min,  0.007 sec
     gradient                   ...        0 min,  0.008 sec
 * total energy  :   -30.5712847 Eh     change       -0.1239877E-04 Eh
   gradient norm :     0.0022039 Eh/α   predicted    -0.6339945E-05 ( -48.87%)
   displ. norm   :     0.1154469 α      lambda       -0.1757581E-04
   maximum displ.:     0.0727035 α      in ANC's #1, #2, #5, ...

........................................................................
.............................. CYCLE   35 ..............................
........................................................................
   1    -30.8896887 -0.308897E+02  0.326E-02    2.97       0.0  T
   2    -30.8896889 -0.204751E-06  0.202E-02    2.97       1.0  T
   3    -30.8896890 -0.122120E-06  0.322E-03    2.98       6.5  T
   4    -30.8896890 -0.153046E-07  0.217E-03    2.97       9.6  T
   5    -30.8896890 -0.967173E-08  0.114E-03    2.97      18.3  T
   6    -30.8896890 -0.296185E-08  0.716E-04    2.97      29.1  T
   7    -30.8896890 -0.153670E-08  0.205E-04    2.97     101.6  T
     SCC iter.                  ...        0 min,  0.007 sec
     gradient                   ...        0 min,  0.010 sec
 * total energy  :   -30.5712977 Eh     change       -0.1300526E-04 Eh
   gradient norm :     0.0023394 Eh/α   predicted    -0.8912808E-05 ( -31.47%)
   displ. norm   :     0.1486272 α      lambda       -0.2279153E-04
   maximum displ.:     0.0944958 α      in ANC's #1, #2, #3, ...

........................................................................
.............................. CYCLE   36 ..............................
........................................................................
   1    -30.8895877 -0.308896E+02  0.404E-02    2.97       0.0  T
   2    -30.8895880 -0.315522E-06  0.248E-02    2.97       1.0  T
   3    -30.8895882 -0.188899E-06  0.414E-03    2.97       5.0  T
   4    -30.8895882 -0.184125E-07  0.252E-03    2.97       8.3  T
   5    -30.8895882 -0.128720E-07  0.153E-03    2.97      13.6  T
   6    -30.8895882 -0.465830E-08  0.929E-04    2.97      22.4  T
   7    -30.8895882 -0.281154E-08  0.273E-04    2.97      76.4  T
     SCC iter.                  ...        0 min,  0.007 sec
     gradient                   ...        0 min,  0.008 sec
 * total energy  :   -30.5713149 Eh     change       -0.1726843E-04 Eh
   gradient norm :     0.0020914 Eh/α   predicted    -0.1165902E-04 ( -32.48%)
   displ. norm   :     0.1842875 α      lambda       -0.3360574E-04
   maximum displ.:     0.1193666 α      in ANC's #2, #1, #3, ...

........................................................................
.............................. CYCLE   37 ..............................
........................................................................
   1    -30.8897821 -0.308898E+02  0.511E-02    2.97       0.0  T
   2    -30.8897826 -0.569892E-06  0.301E-02    2.97       1.0  T
   3    -30.8897829 -0.256161E-06  0.579E-03    2.97       3.6  T
   4    -30.8897829 -0.320845E-07  0.313E-03    2.97       6.7  T
   5    -30.8897829 -0.172040E-07  0.186E-03    2.97      11.2  T
   6    -30.8897829 -0.781878E-08  0.728E-04    2.97      28.6  T
   7    -30.8897830 -0.192837E-08  0.297E-04    2.97      70.3  T
     SCC iter.                  ...        0 min,  0.008 sec
     gradient                   ...        0 min,  0.010 sec
 * total energy  :   -30.5713409 Eh     change       -0.2592904E-04 Eh
   gradient norm :     0.0013601 Eh/α   predicted    -0.1739550E-04 ( -32.91%)
   displ. norm   :     0.4530168 α      lambda       -0.4104953E-04
   maximum displ.:     0.3029260 α      in ANC's #2, #1, #3, ...

........................................................................
.............................. CYCLE   38 ..............................
........................................................................
   1    -30.8884567 -0.308885E+02  0.133E-01    2.98       0.0  T
   2    -30.8884594 -0.271508E-05  0.773E-02    2.98       1.0  T
   3    -30.8884610 -0.161384E-05  0.153E-02    2.98       1.4  T
   4    -30.8884612 -0.203619E-06  0.694E-03    2.98       3.0  T
   5    -30.8884613 -0.106295E-06  0.495E-03    2.98       4.2  T
   6    -30.8884614 -0.477676E-07  0.264E-03    2.98       7.9  T
   7    -30.8884614 -0.260033E-07  0.790E-04    2.98      26.4  T
   8    -30.8884614 -0.113808E-08  0.302E-04    2.98      69.0  T
     SCC iter.                  ...        0 min,  0.008 sec
     gradient                   ...        0 min,  0.009 sec
 * total energy  :   -30.5713723 Eh     change       -0.3139633E-04 Eh
   gradient norm :     0.0039001 Eh/α   predicted    -0.2245577E-04 ( -28.48%)
   displ. norm   :     0.2293620 α      lambda       -0.8936616E-04
   maximum displ.:     0.1780933 α      in ANC's #2, #1, #4, ...

........................................................................
.............................. CYCLE   39 ..............................
........................................................................
   1    -30.8898650 -0.308899E+02  0.793E-02    2.97       0.0  T
   2    -30.8898670 -0.194543E-05  0.422E-02    2.98       1.0  T
   3    -30.8898673 -0.271072E-06  0.819E-03    2.98       2.5  T
   4    -30.8898674 -0.930302E-07  0.467E-03    2.98       4.5  T
   5    -30.8898674 -0.311223E-07  0.246E-03    2.98       8.5  T
   6    -30.8898674 -0.161275E-07  0.172E-03    2.98      12.1  T
   7    -30.8898674 -0.835472E-08  0.446E-04    2.98      46.8  T
   8    -30.8898674 -0.710973E-09  0.215E-04    2.98      97.0  T
     SCC iter.                  ...        0 min,  0.008 sec
     gradient                   ...        0 min,  0.008 sec
 * total energy  :   -30.5714110 Eh     change       -0.3870696E-04 Eh
   gradient norm :     0.0030461 Eh/α   predicted    -0.4706869E-04 (  21.60%)
   displ. norm   :     0.1894612 α      lambda       -0.3592056E-04
   maximum displ.:     0.1345688 α      in ANC's #2, #1, #4, ...

........................................................................
.............................. CYCLE   40 ..............................
........................................................................
   1    -30.8895332 -0.308895E+02  0.574E-02    2.99       0.0  T
   2    -30.8895339 -0.755241E-06  0.327E-02    2.99       1.0  T
   3    -30.8895342 -0.293818E-06  0.698E-03    2.98       3.0  T
   4    -30.8895343 -0.430729E-07  0.382E-03    2.98       5.5  T
   5    -30.8895343 -0.290558E-07  0.224E-03    2.98       9.3  T
   6    -30.8895343 -0.958775E-08  0.158E-03    2.98      13.2  T
   7    -30.8895343 -0.768539E-08  0.375E-04    2.98      55.6  T
   8    -30.8895343 -0.282956E-09  0.160E-04    2.98     130.6  T
     SCC iter.                  ...        0 min,  0.008 sec
     gradient                   ...        0 min,  0.008 sec
 * total energy  :   -30.5714374 Eh     change       -0.2643813E-04 Eh
   gradient norm :     0.0016768 Eh/α   predicted    -0.1861812E-04 ( -29.58%)
   displ. norm   :     0.2376551 α      lambda       -0.3442937E-04
   maximum displ.:     0.1721706 α      in ANC's #2, #4, #1, ...

........................................................................
.............................. CYCLE   41 ..............................
........................................................................
   1    -30.8905536 -0.308906E+02  0.716E-02    3.00       0.0  T
   2    -30.8905550 -0.144713E-05  0.404E-02    2.99       1.0  T
   3    -30.8905554 -0.437093E-06  0.895E-03    2.99       2.3  T
   4    -30.8905555 -0.878030E-07  0.507E-03    2.99       4.1  T
   5    -30.8905556 -0.495121E-07  0.285E-03    2.98       7.3  T
   6    -30.8905556 -0.179381E-07  0.205E-03    2.98      10.2  T
   7    -30.8905556 -0.137080E-07  0.592E-04    2.98      35.3  T
   8    -30.8905556 -0.893152E-09  0.308E-04    2.98      67.8  T
     SCC iter.                  ...        0 min,  0.009 sec
     gradient                   ...        0 min,  0.010 sec
 * total energy  :   -30.5714573 Eh     change       -0.1988650E-04 Eh
   gradient norm :     0.0042784 Eh/α   predicted    -0.1765540E-04 ( -11.22%)
   displ. norm   :     0.0333868 α      lambda       -0.1965836E-04
   maximum displ.:     0.0191814 α      in ANC's #1, #4, #5, ...

........................................................................
.............................. CYCLE   42 ..............................
........................................................................
   1    -30.8909017 -0.308909E+02  0.102E-02    2.98       0.0  T
   2    -30.8909019 -0.144520E-06  0.617E-03    2.98       3.4  T
   3    -30.8909019 -0.850116E-08  0.196E-03    2.98      10.7  T
   4    -30.8909019 -0.782390E-08  0.859E-04    2.98      24.3  T
   5    -30.8909019 -0.144452E-08  0.638E-04    2.98      32.7  T
     SCC iter.                  ...        0 min,  0.005 sec
     gradient                   ...        0 min,  0.010 sec
 * total energy  :   -30.5714727 Eh     change       -0.1545108E-04 Eh
   gradient norm :     0.0028920 Eh/α   predicted    -0.9839470E-05 ( -36.32%)
   displ. norm   :     0.2013555 α      lambda       -0.4908590E-04
   maximum displ.:     0.1630110 α      in ANC's #2, #4, #44, ...
 * RMSD in coord.:     0.5906565 α      energy gain  -0.5368296E-03 Eh

generating ANC from model Hessian ...
Using Lindh-Hessian (1995)
 Shifting diagonal of input Hessian by   9.608391077415674E-003
 Lowest  eigenvalues of input Hessian
    0.000000    0.000000    0.000000    0.000000    0.000000    0.000000
    0.010000    0.010184    0.010983    0.011005    0.011694    0.016012
    0.017635    0.018154    0.021456    0.023573    0.025767    0.035656
 Highest eigenvalues
    1.171681    1.197646    1.229131    1.242724    1.267466    1.690008
 

........................................................................
.............................. CYCLE   43 ..............................
........................................................................
   1    -30.8896891 -0.308897E+02  0.573E-02    2.97       0.0  T
   2    -30.8896899 -0.780546E-06  0.324E-02    2.98       1.0  T
   3    -30.8896900 -0.928120E-07  0.681E-03    2.98       3.1  T
   4    -30.8896901 -0.130640E-06  0.386E-03    2.98       5.4  T
   5    -30.8896901 -0.269671E-07  0.181E-03    2.98      11.5  T
   6    -30.8896901 -0.647922E-08  0.132E-03    2.98      15.8  T
   7    -30.8896902 -0.587562E-08  0.467E-04    2.98      44.7  T
   8    -30.8896902 -0.717414E-09  0.225E-04    2.98      92.5  T
     SCC iter.                  ...        0 min,  0.009 sec
     gradient                   ...        0 min,  0.009 sec
 * total energy  :   -30.5714977 Eh     change       -0.2498016E-04 Eh
   gradient norm :     0.0022095 Eh/α   predicted     0.0000000E+00 (-100.00%)
   displ. norm   :     0.0263989 α      lambda       -0.2560474E-04
   maximum displ.:     0.0132231 α      in ANC's #3, #8, #1, ...

........................................................................
.............................. CYCLE   44 ..............................
........................................................................
   1    -30.8902543 -0.308903E+02  0.148E-02    2.98       0.0  T
   2    -30.8902543 -0.574335E-07  0.884E-03    2.98       2.4  T
   3    -30.8902543  0.714530E-08  0.182E-03    2.98      11.5  T
   4    -30.8902544 -0.241617E-07  0.753E-04    2.98      27.7  T
   5    -30.8902544 -0.460215E-09  0.362E-04    2.98      57.6  T
     SCC iter.                  ...        0 min,  0.006 sec
     gradient                   ...        0 min,  0.009 sec
 * total energy  :   -30.5715135 Eh     change       -0.1579781E-04 Eh
   gradient norm :     0.0013248 Eh/α   predicted    -0.1285727E-04 ( -18.61%)
   displ. norm   :     0.0552459 α      lambda       -0.1371258E-04
   maximum displ.:     0.0329785 α      in ANC's #3, #8, #2, ...

........................................................................
.............................. CYCLE   45 ..............................
........................................................................
   1    -30.8907821 -0.308908E+02  0.187E-02    2.98       0.0  T
   2    -30.8907823 -0.140039E-06  0.114E-02    2.98       1.8  T
   3    -30.8907823 -0.105162E-07  0.254E-03    2.98       8.2  T
   4    -30.8907823 -0.341061E-07  0.114E-03    2.98      18.2  T
   5    -30.8907823 -0.126509E-08  0.563E-04    2.98      37.0  T
   6    -30.8907823 -0.644516E-09  0.330E-04    2.98      63.2  T
     SCC iter.                  ...        0 min,  0.006 sec
     gradient                   ...        0 min,  0.006 sec
 * total energy  :   -30.5715263 Eh     change       -0.1275791E-04 Eh
   gradient norm :     0.0009335 Eh/α   predicted    -0.6866083E-05 ( -46.18%)
   displ. norm   :     0.0597072 α      lambda       -0.9390532E-05
   maximum displ.:     0.0365311 α      in ANC's #3, #2, #1, ...

........................................................................
.............................. CYCLE   46 ..............................
........................................................................
   1    -30.8905000 -0.308905E+02  0.178E-02    2.98       0.0  T
   2    -30.8905002 -0.121036E-06  0.108E-02    2.98       1.9  T
   3    -30.8905002 -0.337721E-07  0.181E-03    2.98      11.5  T
   4    -30.8905002 -0.447661E-08  0.105E-03    2.98      19.9  T
   5    -30.8905002 -0.190758E-08  0.615E-04    2.98      33.9  T
   6    -30.8905002 -0.842544E-09  0.412E-04    2.98      50.6  T
     SCC iter.                  ...        0 min,  0.008 sec
     gradient                   ...        0 min,  0.007 sec
 * total energy  :   -30.5715370 Eh     change       -0.1072058E-04 Eh
   gradient norm :     0.0008029 Eh/α   predicted    -0.4703840E-05 ( -56.12%)
   displ. norm   :     0.0869662 α      lambda       -0.9947363E-05
   maximum displ.:     0.0516934 α      in ANC's #3, #2, #1, ...

........................................................................
.............................. CYCLE   47 ..............................
........................................................................
   1    -30.8901062 -0.308901E+02  0.238E-02    2.98       0.0  T
   2    -30.8901063 -0.141612E-06  0.145E-02    2.98       1.4  T
   3    -30.8901064 -0.623372E-07  0.246E-03    2.98       8.5  T
   4    -30.8901064 -0.718944E-08  0.148E-03    2.98      14.0  T
   5    -30.8901064 -0.479348E-08  0.914E-04    2.98      22.8  T
   6    -30.8901064 -0.181991E-08  0.594E-04    2.98      35.1  T
     SCC iter.                  ...        0 min,  0.007 sec
     gradient                   ...        0 min,  0.007 sec
 * total energy  :   -30.5715484 Eh     change       -0.1140532E-04 Eh
   gradient norm :     0.0010824 Eh/α   predicted    -0.4990945E-05 ( -56.24%)
   displ. norm   :     0.1112369 α      lambda       -0.1014558E-04
   maximum displ.:     0.0627317 α      in ANC's #3, #2, #1, ...

........................................................................
.............................. CYCLE   48 ..............................
........................................................................
   1    -30.8899244 -0.308899E+02  0.308E-02    2.98       0.0  T
   2    -30.8899246 -0.181049E-06  0.186E-02    2.98       1.1  T
   3    -30.8899247 -0.948685E-07  0.359E-03    2.98       5.8  T
   4    -30.8899247 -0.176099E-07  0.219E-03    2.98       9.5  T
   5    -30.8899247 -0.140865E-07  0.128E-03    2.98      16.3  T
   6    -30.8899247 -0.351260E-08  0.611E-04    2.98      34.1  T
   7    -30.8899247 -0.118666E-08  0.227E-04    2.98      91.8  T
     SCC iter.                  ...        0 min,  0.008 sec
     gradient                   ...        0 min,  0.011 sec
 * total energy  :   -30.5715600 Eh     change       -0.1156652E-04 Eh
   gradient norm :     0.0010463 Eh/α   predicted    -0.5102981E-05 ( -55.88%)
   displ. norm   :     0.1240416 α      lambda       -0.1010702E-04
   maximum displ.:     0.0743952 α      in ANC's #2, #3, #1, ...

........................................................................
.............................. CYCLE   49 ..............................
........................................................................
   1    -30.8899499 -0.308899E+02  0.393E-02    2.99       0.0  T
   2    -30.8899502 -0.285823E-06  0.229E-02    2.99       1.0  T
   3    -30.8899504 -0.181044E-06  0.524E-03    2.99       4.0  T
   4    -30.8899504 -0.236070E-07  0.305E-03    2.99       6.8  T
   5    -30.8899504 -0.319789E-07  0.196E-03    2.98      10.6  T
   6    -30.8899505 -0.866811E-08  0.885E-04    2.98      23.6  T
   7    -30.8899505 -0.281737E-08  0.293E-04    2.98      71.2  T
     SCC iter.                  ...        0 min,  0.009 sec
     gradient                   ...        0 min,  0.007 sec
 * total energy  :   -30.5715707 Eh     change       -0.1076541E-04 Eh
   gradient norm :     0.0007167 Eh/α   predicted    -0.5090425E-05 ( -52.71%)
   displ. norm   :     0.0823724 α      lambda       -0.7187550E-05
   maximum displ.:     0.0563476 α      in ANC's #2, #3, #1, ...

........................................................................
.............................. CYCLE   50 ..............................
........................................................................
   1    -30.8902196 -0.308902E+02  0.301E-02    2.99       0.0  T
   2    -30.8902198 -0.161177E-06  0.170E-02    2.99       1.2  T
   3    -30.8902199 -0.895338E-07  0.381E-03    2.99       5.5  T
   4    -30.8902199 -0.114068E-07  0.202E-03    2.99      10.3  T
   5    -30.8902199 -0.133208E-07  0.134E-03    2.98      15.6  T
   6    -30.8902199 -0.381681E-08  0.717E-04    2.98      29.1  T
   7    -30.8902199 -0.178863E-08  0.225E-04    2.98      92.8  T
     SCC iter.                  ...        0 min,  0.009 sec
     gradient                   ...        0 min,  0.010 sec
 * total energy  :   -30.5715789 Eh     change       -0.8118160E-05 Eh
   gradient norm :     0.0006339 Eh/α   predicted    -0.3605717E-05 ( -55.58%)
   displ. norm   :     0.0709571 α      lambda       -0.6944377E-05
   maximum displ.:     0.0529419 α      in ANC's #2, #5, #1, ...

........................................................................
.............................. CYCLE   51 ..............................
........................................................................
   1    -30.8905029 -0.308905E+02  0.313E-02    2.99       0.0  T
   2    -30.8905030 -0.164987E-06  0.171E-02    2.98       1.2  T
   3    -30.8905031 -0.889705E-07  0.384E-03    2.98       5.4  T
   4    -30.8905031 -0.159142E-07  0.192E-03    2.98      10.9  T
   5    -30.8905031 -0.963788E-08  0.129E-03    2.98      16.1  T
   6    -30.8905031 -0.329661E-08  0.642E-04    2.98      32.5  T
   7    -30.8905031 -0.178909E-08  0.172E-04    2.98     121.4  T
     SCC iter.                  ...        0 min,  0.008 sec
     gradient                   ...        0 min,  0.010 sec
 * total energy  :   -30.5715874 Eh     change       -0.8591320E-05 Eh
   gradient norm :     0.0010230 Eh/α   predicted    -0.3483197E-05 ( -59.46%)
   displ. norm   :     0.0815012 α      lambda       -0.8652056E-05
   maximum displ.:     0.0620897 α      in ANC's #2, #5, #10, ...

........................................................................
.............................. CYCLE   52 ..............................
........................................................................
   1    -30.8905717 -0.308906E+02  0.355E-02    2.99       0.0  T
   2    -30.8905719 -0.198977E-06  0.196E-02    2.99       1.1  T
   3    -30.8905721 -0.102486E-06  0.432E-03    2.98       4.8  T
   4    -30.8905721 -0.125003E-07  0.256E-03    2.98       8.1  T
   5    -30.8905721 -0.260238E-07  0.144E-03    2.98      14.5  T
   6    -30.8905721 -0.554352E-08  0.474E-04    2.98      43.9  T
   7    -30.8905721 -0.693181E-09  0.195E-04    2.98     106.8  T
     SCC iter.                  ...        0 min,  0.007 sec
     gradient                   ...        0 min,  0.009 sec
 * total energy  :   -30.5715981 Eh     change       -0.1066033E-04 Eh
   gradient norm :     0.0013724 Eh/α   predicted    -0.4340049E-05 ( -59.29%)
   displ. norm   :     0.0924810 α      lambda       -0.9117030E-05
   maximum displ.:     0.0716880 α      in ANC's #2, #5, #10, ...

........................................................................
.............................. CYCLE   53 ..............................
........................................................................
   1    -30.8904530 -0.308905E+02  0.389E-02    2.98       0.0  T
   2    -30.8904532 -0.212945E-06  0.215E-02    2.98       1.0  T
   3    -30.8904533 -0.111787E-06  0.439E-03    2.98       4.7  T
   4    -30.8904533 -0.131506E-07  0.207E-03    2.98      10.1  T
   5    -30.8904534 -0.143115E-07  0.136E-03    2.98      15.3  T
   6    -30.8904534 -0.369782E-08  0.778E-04    2.98      26.8  T
   7    -30.8904534 -0.208322E-08  0.195E-04    2.98     106.9  T
     SCC iter.                  ...        0 min,  0.008 sec
     gradient                   ...        0 min,  0.009 sec
 * total energy  :   -30.5716086 Eh     change       -0.1048082E-04 Eh
   gradient norm :     0.0012222 Eh/α   predicted    -0.4578058E-05 ( -56.32%)
   displ. norm   :     0.0784469 α      lambda       -0.6631387E-05
   maximum displ.:     0.0638655 α      in ANC's #2, #5, #10, ...

........................................................................
.............................. CYCLE   54 ..............................
........................................................................
   1    -30.8903574 -0.308904E+02  0.295E-02    2.98       0.0  T
   2    -30.8903576 -0.169698E-06  0.166E-02    2.98       1.3  T
   3    -30.8903577 -0.667838E-07  0.352E-03    2.99       5.9  T
   4    -30.8903577 -0.113283E-07  0.203E-03    2.98      10.3  T
   5    -30.8903577 -0.119612E-07  0.107E-03    2.98      19.5  T
   6    -30.8903577 -0.212853E-08  0.758E-04    2.98      27.5  T
   7    -30.8903577 -0.163052E-08  0.158E-04    2.98     131.8  T
     SCC iter.                  ...        0 min,  0.007 sec
     gradient                   ...        0 min,  0.009 sec
 * total energy  :   -30.5716166 Eh     change       -0.7975255E-05 Eh
   gradient norm :     0.0007438 Eh/α   predicted    -0.3328694E-05 ( -58.26%)
   displ. norm   :     0.0776005 α      lambda       -0.6249364E-05
   maximum displ.:     0.0646578 α      in ANC's #2, #5, #4, ...

........................................................................
.............................. CYCLE   55 ..............................
........................................................................
   1    -30.8901848 -0.308902E+02  0.267E-02    2.98       0.0  T
   2    -30.8901850 -0.137217E-06  0.155E-02    2.99       1.3  T
   3    -30.8901850 -0.578387E-07  0.303E-03    2.99       6.9  T
   4    -30.8901850 -0.722586E-08  0.166E-03    2.99      12.5  T
   5    -30.8901850 -0.847623E-08  0.883E-04    2.99      23.6  T
   6    -30.8901850 -0.141342E-08  0.618E-04    2.99      33.8  T
     SCC iter.                  ...        0 min,  0.008 sec
     gradient                   ...        0 min,  0.009 sec
 * total energy  :   -30.5716248 Eh     change       -0.8203105E-05 Eh
   gradient norm :     0.0006296 Eh/α   predicted    -0.3136913E-05 ( -61.76%)
   displ. norm   :     0.1021515 α      lambda       -0.9257767E-05
   maximum displ.:     0.0861816 α      in ANC's #2, #5, #4, ...

........................................................................
.............................. CYCLE   56 ..............................
........................................................................
   1    -30.8901353 -0.308901E+02  0.317E-02    2.98       0.0  T
   2    -30.8901356 -0.265419E-06  0.185E-02    2.99       1.1  T
   3    -30.8901357 -0.963135E-07  0.362E-03    2.99       5.8  T
   4    -30.8901357 -0.109901E-07  0.189E-03    2.99      11.0  T
   5    -30.8901357 -0.556836E-08  0.102E-03    2.99      20.4  T
   6    -30.8901357 -0.216917E-08  0.428E-04    2.99      48.8  T
   7    -30.8901357 -0.840238E-09  0.201E-04    2.99     104.0  T
     SCC iter.                  ...        0 min,  0.008 sec
     gradient                   ...        0 min,  0.009 sec
 * total energy  :   -30.5716368 Eh     change       -0.1202433E-04 Eh
   gradient norm :     0.0010345 Eh/α   predicted    -0.4652239E-05 ( -61.31%)
   displ. norm   :     0.2327836 α      lambda       -0.1850947E-04
   maximum displ.:     0.1912287 α      in ANC's #2, #5, #4, ...

........................................................................
.............................. CYCLE   57 ..............................
........................................................................
   1    -30.8892377 -0.308892E+02  0.726E-02    2.99       0.0  T
   2    -30.8892385 -0.799883E-06  0.431E-02    2.99       1.0  T
   3    -30.8892390 -0.487044E-06  0.752E-03    2.99       2.8  T
   4    -30.8892390 -0.365966E-07  0.340E-03    2.99       6.1  T
   5    -30.8892390 -0.305034E-07  0.237E-03    2.99       8.8  T
   6    -30.8892391 -0.110512E-07  0.129E-03    2.99      16.1  T
   7    -30.8892391 -0.577653E-08  0.401E-04    2.99      52.0  T
   8    -30.8892391 -0.253817E-09  0.105E-04    2.99     199.2  T
     SCC iter.                  ...        0 min,  0.010 sec
     gradient                   ...        0 min,  0.010 sec
 * total energy  :   -30.5716526 Eh     change       -0.1580429E-04 Eh
   gradient norm :     0.0026555 Eh/α   predicted    -0.9478505E-05 ( -40.03%)
   displ. norm   :     0.1282674 α      lambda       -0.2216789E-04
   maximum displ.:     0.1121434 α      in ANC's #2, #4, #5, ...

........................................................................
.............................. CYCLE   58 ..............................
........................................................................
   1    -30.8893517 -0.308894E+02  0.381E-02    2.99       0.0  T
   2    -30.8893520 -0.284870E-06  0.218E-02    2.99       1.0  T
   3    -30.8893521 -0.999550E-07  0.393E-03    2.99       5.3  T
[...]
         :: total energy             -30.571754167730 Eh    ::
         :: total w/o Gsasa/hb       -30.560285857628 Eh    ::
         :: gradient norm              0.000534108285 Eh/a0 ::
         :: HOMO-LUMO gap              2.973427562469 eV    ::
         ::.................................................::
         :: SCC energy               -30.890334641028 Eh    ::
         :: -> isotropic ES            0.218319223488 Eh    ::
         :: -> anisotropic ES         -0.015770223902 Eh    ::
         :: -> anisotropic XC         -0.010303361949 Eh    ::
         :: -> dispersion             -0.019133436272 Eh    ::
         :: -> Gsolv                  -0.118169390491 Eh    ::
         ::    -> Gborn               -0.106701080389 Eh    ::
         ::    -> Gsasa               -0.012459121558 Eh    ::
         ::    -> Ghb                 -0.002366118067 Eh    ::
         ::    -> Gshift               0.003356929523 Eh    ::
         :: repulsion energy           0.318404566733 Eh    ::
         :: add. restraining           0.000000000000 Eh    ::
         :: total charge              -1.000000000000 e     ::
         :::::::::::::::::::::::::::::::::::::::::::::::::::::

           ------------------------------------------------- 
          |                Numerical Hessian                |
           ------------------------------------------------- 
step length          :   0.00500
SCC accuracy         :   0.30000
Hessian scale factor :   1.00000
frozen atoms in %    :   0.00000    0
RMS gradient         :   0.00053
estimated CPU  time      0.10 min
estimated wall time      0.05 min

writing file <hessian>.

 projected vibrational frequencies (cm⁻¹)
eigval :       -0.00    -0.00    -0.00     0.00     0.00     0.00
eigval :      -66.48    32.94    49.70    60.96    71.88   102.31
eigval :      133.29   172.52   222.53   248.61   269.62   397.62
eigval :      460.39   528.57   694.43   804.70   851.46   908.91
eigval :      936.67   953.27   975.16   993.73  1097.35  1117.02
eigval :     1124.01  1127.57  1143.60  1158.90  1180.00  1182.75
eigval :     1207.35  1223.08  1241.98  1256.90  1280.44  1310.00
eigval :     1332.57  1336.54  1346.34  1351.20  1362.40  1477.48
eigval :     1479.50  1480.65  1491.10  1500.25  1511.59  1515.93
eigval :     1517.00  2323.87  2352.33  2550.74  2836.66  2946.75
eigval :     2950.86  2959.89  2966.52  2968.69  2969.02  2974.71
eigval :     2979.84  2984.72  2992.55
           -------------------------------------------------
          |                Property Printout                |
           -------------------------------------------------

    * Orbital Energies and Occupations

         #    Occupation            Energy/Eh            Energy/eV
      -------------------------------------------------------------
         1        2.0000           -0.8313758             -22.6229
       ...           ...                  ...                  ...
        16        2.0000           -0.4752134             -12.9312
        17        2.0000           -0.4694262             -12.7737
        18        2.0000           -0.4650164             -12.6537
        19        2.0000           -0.4613103             -12.5529
        20        2.0000           -0.4528031             -12.3214
        21        2.0000           -0.4428643             -12.0510
        22        2.0000           -0.4237245             -11.5301
        23        2.0000           -0.4216380             -11.4734
        24        2.0000           -0.4154743             -11.3056
        25        2.0000           -0.3984832             -10.8433
        26        2.0000           -0.3947732             -10.7423
        27        2.0000           -0.3165121              -8.6127
        28        2.0000           -0.3147468              -8.5647 (HOMO)
        29                         -0.2054767              -5.5913 (LUMO)
        30                          0.0339876               0.9248
        31                          0.0451257               1.2279
        32                          0.0500579               1.3621
        33                          0.0602587               1.6397
        34                          0.0760004               2.0681
        35                          0.0859978               2.3401
        36                          0.0958100               2.6071
        37                          0.1146896               3.1209
        38                          0.1167915               3.1781
        39                          0.1260969               3.4313
       ...                                ...                  ...
        55                          0.4022517              10.9458
      -------------------------------------------------------------
                  HL-Gap            0.1092701 Eh            2.9734 eV
             Fermi-level           -0.2601117 Eh           -7.0780 eV

     #   Z          covCN         q      C6AA      α(0)
     1   6 C        3.806    -0.052    21.512     6.603
     2   6 C        3.804    -0.056    21.569     6.612
     3   6 C        3.881    -0.047    21.363     6.571
     4   1 H        0.925     0.051     2.309     2.376
     5   6 C        3.805    -0.058    21.622     6.620
     6   1 H        0.924     0.020     2.740     2.589
     7   1 H        0.924     0.048     2.342     2.393
     8   6 C        3.880    -0.045    21.331     6.567
     9   1 H        0.924     0.035     2.510     2.478
    10   1 H        0.924     0.027     2.625     2.533
    11   6 C        3.796     0.063    19.523     6.292
    12   1 H        0.924     0.047     2.358     2.402
    13   1 H        0.924     0.024     2.672     2.556
    14   1 H        0.924     0.038     2.472     2.459
    15   1 H        0.924     0.049     2.329     2.386
    16   1 H        0.924     0.018     2.771     2.603
    17   1 H        0.924     0.045     2.379     2.412
    18  35 Br       1.069    -0.239   191.731    22.326
    19   6 C        3.605     0.205    17.846     6.106
    20   8 O        0.855    -0.823    32.296     7.619
    21   1 H        0.917    -0.117     6.205     3.896
    22   1 H        0.917    -0.114     6.096     3.862
    23   1 H        0.916    -0.119     6.282     3.920

 Mol. C6AA /au·bohr⁶  :       5779.687813
 Mol. C8AA /au·bohr⁸  :     153866.471131
 Mol. α(0) /au        :        114.180508


Wiberg/Mayer (AO) data.
largest (>0.10) Wiberg bond orders for each atom

 ---------------------------------------------------------------------------
     #   Z sym  total        # sym  WBO       # sym  WBO       # sym  WBO
 ---------------------------------------------------------------------------
     1   6 C    3.997 --     2 C    1.006     8 C    0.995    16 H    0.982
                            17 H    0.979
     2   6 C    3.997 --     5 C    1.010     1 C    1.006    10 H    0.978
                             9 H    0.978
     3   6 C    3.996 --    11 C    1.007     5 C    0.996     6 H    0.982
                             7 H    0.978
     4   1 H    0.997 --    11 C    0.946
     5   6 C    3.997 --     2 C    1.010     3 C    0.996    15 H    0.979
                            14 H    0.979
     6   1 H    1.000 --     3 C    0.982
     7   1 H    0.998 --     3 C    0.978
     8   6 C    3.997 --    11 C    1.012     1 C    0.995    13 H    0.980
                            12 H    0.978
     9   1 H    0.999 --     2 C    0.978
    10   1 H    0.999 --     2 C    0.978
    11   6 C    3.928 --     8 C    1.012     3 C    1.007     4 H    0.946
                            18 Br   0.907
    12   1 H    0.998 --     8 C    0.978
    13   1 H    0.999 --     8 C    0.980
    14   1 H    0.999 --     5 C    0.979
    15   1 H    0.998 --     5 C    0.979
    16   1 H    1.000 --     1 C    0.982
    17   1 H    0.998 --     1 C    0.979
    18  35 Br   0.968 --    11 C    0.907
    19   6 C    3.977 --    20 O    1.163    22 H    0.939    21 H    0.937
                            23 H    0.936
    20   8 O    1.368 --    19 C    1.163
    21   1 H    0.986 --    19 C    0.937
    22   1 H    0.987 --    19 C    0.939
    23   1 H    0.986 --    19 C    0.936
 ---------------------------------------------------------------------------

Topologies differ in total number of bonds
Writing topology from bond orders to xtbtopo.mol

molecular dipole:
                 x           y           z       tot (Debye)
 q only:       -2.431       1.884       8.481
   full:       -1.062       1.904       8.523      22.360
molecular quadrupole (traceless):
                xx          xy          yy          xz          yz          zz
 q only:       20.533       3.970      35.999      26.679     -23.400     -56.532
  q+dip:       12.655      -4.342      40.581       7.180     -25.173     -53.236
   full:       12.697      -4.232      40.490       8.533     -24.472     -53.187

           -------------------------------------------------
          |                Geometry Summary                 |
           -------------------------------------------------

      molecular mass/u    :      194.0892545
   center of mass at/Å    :       -0.9051298      -0.9773988      -2.6134428
  moments of inertia/u·Å² :        0.4923208E+03   0.6510697E+03   0.9404847E+03
rotational constants/cm⁻¹ :        0.3424116E-01   0.2589221E-01   0.1792441E-01

 * 21 selected distances

     #   Z          #   Z                                           value/Å
     1   6 C        2   6 C                                       1.5323980
     2   6 C        5   6 C                                       1.5250226
     3   6 C        5   6 C                                       1.5361125
     3   6 C        6   1 H                                       1.0933683
     3   6 C        7   1 H                                       1.0934421
     1   6 C        8   6 C                                       1.5363323
     2   6 C        9   1 H                                       1.0913271
     2   6 C       10   1 H                                       1.0937705
     3   6 C       11   6 C                                       1.5244528
     4   1 H       11   6 C                                       1.1006355
     8   6 C       11   6 C                                       1.5165092
     8   6 C       12   1 H                                       1.0937369
     8   6 C       13   1 H                                       1.0930064
     5   6 C       14   1 H                                       1.0905467 (min)
     5   6 C       15   1 H                                       1.0921086
     1   6 C       16   1 H                                       1.0920031
     1   6 C       17   1 H                                       1.0917960
    11   6 C       18  35 Br                                      1.9579457 (max)
    19   6 C       21   1 H                                       1.1334697
    19   6 C       22   1 H                                       1.1305584
    19   6 C       23   1 H                                       1.1347485

 * 3 distinct bonds (by element types)

   Z      Z             #   av. dist./Å        max./Å        min./Å
   1 H    6 C          14     1.1017513     1.1347485     1.0905467
   6 C    6 C           6     1.5284713     1.5363323     1.5165092
   6 C   35 Br          1     1.9579457     1.9579457     1.9579457

           -------------------------------------------------
          |               Frequency Printout                |
           -------------------------------------------------
 projected vibrational frequencies (cm⁻¹)
eigval :       -0.00    -0.00    -0.00     0.00     0.00     0.00
eigval :      -66.48    32.94    49.70    60.96    71.88   102.31
eigval :      133.29   172.52   222.53   248.61   269.62   397.62
eigval :      460.39   528.57   694.43   804.70   851.46   908.91
eigval :      936.67   953.27   975.16   993.73  1097.35  1117.02
eigval :     1124.01  1127.57  1143.60  1158.90  1180.00  1182.75
eigval :     1207.35  1223.08  1241.98  1256.90  1280.44  1310.00
eigval :     1332.57  1336.54  1346.34  1351.20  1362.40  1477.48
eigval :     1479.50  1480.65  1491.10  1500.25  1511.59  1515.93
eigval :     1517.00  2323.87  2352.33  2550.74  2836.66  2946.75
eigval :     2950.86  2959.89  2966.52  2968.69  2969.02  2974.71
eigval :     2979.84  2984.72  2992.55
 reduced masses (amu)
   1: 56.27   2: 35.95   3: 16.46   4: 13.80   5: 33.35   6: 43.48   7:  1.18   8: 22.63
   9: 10.29  10: 12.24  11: 14.30  12: 11.73  13: 14.71  14: 11.16  15: 19.73  16: 37.59
  17: 11.23  18:  8.10  19: 10.46  20:  9.42  21:  9.85  22:  3.22  23:  6.47  24:  7.72
  25:  5.99  26:  7.45  27:  7.64  28:  6.39  29:  7.12  30:  5.20  31:  6.14  32: 10.78
  33:  7.46  34:  8.86  35:  4.51  36:  4.51  37:  3.89  38:  3.31  39:  3.40  40:  2.43
  41:  2.69  42:  3.39  43:  4.05  44:  4.18  45:  4.64  46:  3.79  47:  4.58  48:  1.91
  49:  2.07  50:  1.92  51:  2.02  52:  1.93  53:  1.91  54:  1.57  55:  1.57  56:  1.60
  57:  1.62  58:  1.18  59:  1.83  60:  1.95  61:  1.95  62:  1.95  63:  1.83  64:  1.59
  65:  1.53  66:  1.87  67:  1.62  68:  1.52  69:  1.59
 IR intensities (km·mol⁻¹)
   1:  6.83   2:  4.12   3:  2.56   4:  5.73   5:  2.89   6:  9.87   7:  0.15   8:  7.96
   9:  0.27  10: 19.75  11: 15.92  12:  3.92  13: 34.59  14: 49.56  15:  6.28  16:  0.56
  17:  1.69  18:  6.37  19:  2.63  20:  7.15  21:  9.63  22:  6.13  23:  5.24  24:  2.64
  25:  5.44  26:  2.17  27:  3.44  28:  3.19  29:  2.84  30: 27.14  31:101.93  32:443.68
  33: 10.75  34:  6.14  35: 63.68  36: 62.67  37:  0.55  38:  4.70  39:  3.45  40:  1.93
  41: 12.64  42:  6.97  43:  5.62  44: 12.86  45:  3.35  46:  4.32  47:  1.18  48: 18.89
  49:102.22  50: 18.35  51:  1.76  52:  0.09  53:  5.04  54: 83.31  55: 65.15  56:609.12
  57:673.02  58:470.72  59:232.32  60:  8.45  61:  9.39  62: 35.76  63: 13.05  64: 36.85
  65: 54.64  66:126.14  67:125.48  68: 99.87  69: 73.03
 Raman intensities (amu)
   1:  0.00   2:  0.00   3:  0.00   4:  0.00   5:  0.00   6:  0.00   7:  0.00   8:  0.00
   9:  0.00  10:  0.00  11:  0.00  12:  0.00  13:  0.00  14:  0.00  15:  0.00  16:  0.00
  17:  0.00  18:  0.00  19:  0.00  20:  0.00  21:  0.00  22:  0.00  23:  0.00  24:  0.00
  25:  0.00  26:  0.00  27:  0.00  28:  0.00  29:  0.00  30:  0.00  31:  0.00  32:  0.00
  33:  0.00  34:  0.00  35:  0.00  36:  0.00  37:  0.00  38:  0.00  39:  0.00  40:  0.00
  41:  0.00  42:  0.00  43:  0.00  44:  0.00  45:  0.00  46:  0.00  47:  0.00  48:  0.00
  49:  0.00  50:  0.00  51:  0.00  52:  0.00  53:  0.00  54:  0.00  55:  0.00  56:  0.00
  57:  0.00  58:  0.00  59:  0.00  60:  0.00  61:  0.00  62:  0.00  63:  0.00  64:  0.00
  65:  0.00  66:  0.00  67:  0.00  68:  0.00  69:  0.00
 output can be read by thermo (or use thermo option).
 writing <g98.out> molden fake output.
 recommended (thermochemical) frequency scaling factor: 1.0
           -------------------------------------------------
          |             Thermodynamic Functions             |
           -------------------------------------------------

Refinement of some symmetry elements was terminated before convergence was reached.
Some symmetry elements may remain unidentified.
Molecule has no symmetry elements
It seems to be the C1 point group
c1  symmetry found (for desy threshold:  0.10E+00) used in thermo

          ...................................................
          :                      SETUP                      :
          :.................................................:
          :  # frequencies                          62      :
          :  # imaginary freq.                       1      :
          :  linear?                             false      :
          :  only rotor calc.                    false      :
          :  symmetry                               c1      :
          :  rotational number                       1      :
          :  scaling factor                  1.0000000      :
          :  rotor cutoff                   50.0000000 cm⁻¹ :
          :  imag. cutoff                  -20.0000000 cm⁻¹ :
          :.................................................:

    mode    ω/cm⁻¹     T·S(HO)/kcal·mol⁻¹    T·S(FR)/kcal·mol⁻¹   T·S(vib)
   ------------------------------------------------------------------------
       1     32.94    -1.68269 ( 15.86%)    -1.17993 ( 84.14%)    -1.25965
       2     49.70    -1.43989 ( 49.39%)    -1.05821 ( 50.61%)    -1.24673
       3     60.96    -1.31952 ( 68.85%)    -0.99770 ( 31.15%)    -1.21927
       4     71.88    -1.22279 ( 81.03%)    -0.94893 ( 18.97%)    -1.17083
       5    102.31    -1.01661 ( 94.60%)    -0.84436 (  5.40%)    -1.00732
       6    133.29    -0.86403 ( 98.06%)    -0.76602 (  1.94%)    -0.86213
       7    172.52    -0.71789 ( 99.30%)    -0.68961 (  0.70%)    -0.71770
       8    222.53    -0.57793 ( 99.75%)    -0.61421 (  0.25%)    -0.57802
       9    248.61    -0.51890 ( 99.84%)    -0.58139 (  0.16%)    -0.51901
      10    269.62    -0.47664 ( 99.88%)    -0.55736 (  0.12%)    -0.47674
   ------------------------------------------------------------------------

   temp. (K)  partition function   enthalpy   heat capacity  entropy
                                   cal/mol     cal/K/mol   cal/K/mol   J/K/mol
 298.15  VIB  0.209E+05             5258.023     31.432     34.794
         ROT  0.133E+07              888.752      2.981     30.997
         INT  0.278E+11             6146.776     34.413     65.791
         TR   0.262E+28             1481.254      4.968     41.676
         TOT                        7628.0297    39.3811   107.4671   449.6424

       T/K    H(0)-H(T)+PV         H(T)/Eh          T*S/Eh         G(T)/Eh
   ------------------------------------------------------------------------
    298.15    0.121560E-01    0.205755E+00    0.510611E-01    0.154693E+00
   ------------------------------------------------------------------------

         :::::::::::::::::::::::::::::::::::::::::::::::::::::
         ::                  THERMODYNAMIC                  ::
         :::::::::::::::::::::::::::::::::::::::::::::::::::::
         :: total free energy         -30.417060720586 Eh   ::
         ::.................................................::
         :: total energy              -30.571754167214 Eh   ::
         :: zero point energy           0.193598502849 Eh   ::
         :: G(RRHO) w/o ZPVE           -0.038905056221 Eh   ::
         :: G(RRHO) contrib.            0.154693446628 Eh   ::
         :::::::::::::::::::::::::::::::::::::::::::::::::::::
imag cut-off (cm-1) :    5.00
 found            1  significant imaginary frequency
 writing imag mode distorted coords to xtbhess.xyz
 for further optimization.

optimized geometry written to: xtbopt.xyz


           -------------------------------------------------
          | TOTAL ENERGY              -30.571754167214 Eh   |
          | TOTAL ENTHALPY            -30.365999625245 Eh   |
          | TOTAL FREE ENERGY         -30.417060720586 Eh   |
          | GRADIENT NORM               0.000533963571 Eh/α |
          | HOMO-LUMO GAP               2.973391998795 eV   |
           -------------------------------------------------

------------------------------------------------------------------------
 * finished run on 2021/11/09 at 17:25:26.109     
------------------------------------------------------------------------
 total:
 * wall-time:     0 d,  0 h,  0 min,  2.888 sec
 *  cpu-time:     0 d,  0 h,  0 min,  5.543 sec
 * ratio c/w:     1.919 speedup
 SCF:
 * wall-time:     0 d,  0 h,  0 min,  0.028 sec
 *  cpu-time:     0 d,  0 h,  0 min,  0.054 sec
 * ratio c/w:     1.950 speedup
 ANC optimizer:
 * wall-time:     0 d,  0 h,  0 min,  1.571 sec
 *  cpu-time:     0 d,  0 h,  0 min,  2.970 sec
 * ratio c/w:     1.890 speedup
 numerical hessian:
 * wall-time:     0 d,  0 h,  0 min,  1.225 sec
 *  cpu-time:     0 d,  0 h,  0 min,  2.435 sec
 * ratio c/w:     1.989 speedup

