
                                 *****************
                                 * O   R   C   A *
                                 *****************

           --- An Ab Initio, DFT and Semiempirical electronic structure package ---

                  #######################################################
                  #                        -***-                        #
                  #          Department of theory and spectroscopy      #
                  #               Directorship: Frank Neese             #
                  #        Max Planck Institute fuer Kohlenforschung    #
                  #                Kaiser Wilhelm Platz 1               #
                  #                 D-45470 Muelheim/Ruhr               #
                  #                      Germany                        #
                  #                                                     #
                  #                  All rights reserved                #
                  #                        -***-                        #
                  #######################################################


                         Program Version 4.2.1 -  RELEASE  -


 With contributions from (in alphabetic order):
   Daniel Aravena         : Magnetic Suceptibility
   Michael Atanasov       : Ab Initio Ligand Field Theory (pilot matlab implementation)
   Alexander A. Auer      : GIAO ZORA, VPT2
   Ute Becker             : Parallelization
   Giovanni Bistoni       : ED, misc. LED, open-shell LED, HFLD
   Martin Brehm           : Molecular dynamics
   Dmytro Bykov           : SCF Hessian
   Vijay G. Chilkuri      : MRCI spin determinant printing, contributions to CSF-ICE
   Dipayan Datta          : RHF DLPNO-CCSD density
   Achintya Kumar Dutta   : EOM-CC, STEOM-CC
   Dmitry Ganyushin       : Spin-Orbit,Spin-Spin,Magnetic field MRCI
   Miquel Garcia          : C-PCM Hessian, Gaussian charge scheme
   Yang Guo               : DLPNO-NEVPT2, CIM, IAO-localization
   Andreas Hansen         : Spin unrestricted coupled pair/coupled cluster methods
   Benjamin Helmich-Paris : CASSCF linear response (MC-RPA)
   Lee Huntington         : MR-EOM, pCC
   Robert Izsak           : Overlap fitted RIJCOSX, COSX-SCS-MP3, EOM
   Christian Kollmar      : KDIIS, OOCD, Brueckner-CCSD(T), CCSD density
   Simone Kossmann        : Meta GGA functionals, TD-DFT gradient, OOMP2, MP2 Hessian
   Martin Krupicka        : AUTO-CI
   Lucas Lang             : DCDCAS
   Dagmar Lenk            : GEPOL surface, SMD
   Dimitrios Liakos       : Extrapolation schemes; Compound Job, initial MDCI parallelization
   Dimitrios Manganas     : Further ROCIS development; embedding schemes
   Dimitrios Pantazis     : SARC Basis sets
   Taras Petrenko         : DFT Hessian,TD-DFT gradient, ASA, ECA, R-Raman, ABS, FL, XAS/XES, NRVS
   Peter Pinski           : DLPNO-MP2, DLPNO-MP2 Gradient
   Christoph Reimann      : Effective Core Potentials
   Marius Retegan         : Local ZFS, SOC
   Christoph Riplinger    : Optimizer, TS searches, QM/MM, DLPNO-CCSD(T), (RO)-DLPNO pert. Triples
   Tobias Risthaus        : Range-separated hybrids, TD-DFT gradient, RPA, STAB
   Michael Roemelt        : Original ROCIS implementation
   Masaaki Saitow         : Open-shell DLPNO-CCSD energy and density
   Barbara Sandhoefer     : DKH picture change effects
   Avijit Sen             : IP-ROCIS
   Kantharuban Sivalingam : CASSCF convergence, NEVPT2, FIC-MRCI
   Bernardo de Souza      : ESD, SOC TD-DFT
   Georgi Stoychev        : AutoAux, RI-MP2 NMR
   Willem Van den Heuvel  : Paramagnetic NMR
   Boris Wezisla          : Elementary symmetry handling
   Frank Wennmohs         : Technical directorship


 We gratefully acknowledge several colleagues who have allowed us to
 interface, adapt or use parts of their codes:
   Stefan Grimme, W. Hujo, H. Kruse,             : VdW corrections, initial TS optimization,
                  C. Bannwarth                     DFT functionals, gCP, sTDA/sTD-DF
   Ed Valeev, F. Pavosevic, A. Kumar             : LibInt (2-el integral package), F12 methods
   Garnet Chan, S. Sharma, J. Yang, R. Olivares  : DMRG
   Ulf Ekstrom                                   : XCFun DFT Library
   Mihaly Kallay                                 : mrcc  (arbitrary order and MRCC methods)
   Andreas Klamt, Michael Diedenhofen            : otool_cosmo (COSMO solvation model)
   Jiri Pittner, Ondrej Demel                    : Mk-CCSD
   Frank Weinhold                                : gennbo (NPA and NBO analysis)
   Christopher J. Cramer and Donald G. Truhlar   : smd solvation model
   Lars Goerigk                                  : TD-DFT with DH, B97 family of functionals
   V. Asgeirsson, H. Jonsson                     : NEB implementation
   FAccTs GmbH                                   : IRC, NEB, NEB-TS, Multilevel, MM, QM/MM, CI optimization
   S Lehtola, MJT Oliveira, MAL Marques          : LibXC Library


 Your calculation uses the libint2 library for the computation of 2-el integrals
 For citations please refer to: http://libint.valeyev.net

 Your ORCA version has been built with support for libXC version: 4.2.3
 For citations please refer to: https://tddft.org/programs/libxc/

 This ORCA versions uses:
   CBLAS   interface :  Fast vector & matrix operations
   LAPACKE interface :  Fast linear algebra routines
   SCALAPACK package :  Parallel linear algebra routines




***************************************
The coordinates will be read from file: init.xyz
***************************************


Your calculation utilizes the SMD solvation module
Please cite in your paper:
A.V. Marenich, C.J. Cramer, D.G. Truhlar J. Phys. Chem. B, 113, (2009), 6378 

Your calculation utilizes the semiempirical GFN2-xTB method
Please cite in your paper:
C. Bannwarth, Ehlert S., S. Grimme,  J. Chem. Theory Comput., 15, (2019), 1652.
   

----- Orbital basis set information -----
Your calculation utilizes the basis: def2-SVP
   F. Weigend and R. Ahlrichs, Phys. Chem. Chem. Phys. 7, 3297 (2005).

================================================================================
                                        WARNINGS
                       Please study these warnings very carefully!
================================================================================


WARNING: The environment variable RSH_COMMAND is not set!
  ===> : All Displacements for the Numerical Hessian calculation
         will be started on localhost

WARNING: Geometry Optimization
  ===> : Switching off AutoStart
         For restart on a previous wavefunction, please use MOREAD

WARNING: Found dipole moment calculation with XTB calculation
  ===> : Switching off dipole moment calculation


INFO   : the flag for use of LIBINT has been found!

================================================================================
                                       INPUT FILE
================================================================================
NAME = scants+numfreq.inp
|  1> ! xTB2 ScanTS NumFreq IRC
|  2> 
|  3> *xyzfile -1 1 init.xyz
|  4> 
|  5> %geom
|  6>  scan
|  7>   B 1 0 = 4.0, 1.6, 27
|  8>  end
|  9> end
| 10> 
| 11> %cpcm
| 12>  smd true
| 13>  SMDsolvent "METHANOL"
| 14> end
| 15> 
| 16> %pal
| 17>  nprocs 2
| 18> end
| 19> 
| 20>                          ****END OF INPUT****
================================================================================

                       ******************************
                       *    Relaxed Surface Scan    *
                       ******************************

                      Bond (  1,   0):   range=   4.00000000 ..   1.60000000  steps =   27

There is 1 parameter to be scanned.
There will be   27 constrained geometry optimizations.


         *************************************************************
         *               RELAXED SURFACE SCAN STEP   1               *
         *                                                           *
         *                 Bond (  1,   0)  :   4.00000000           *
         *************************************************************

Geometry optimization settings:
Update method            Update   .... BFGS
Choice of coordinates    CoordSys .... Z-matrix Internals
Initial Hessian          InHess   .... Almoef's Model

Convergence Tolerances:
Energy Change            TolE     ....  5.0000e-06 Eh
Max. Gradient            TolMAXG  ....  3.0000e-04 Eh/bohr
RMS Gradient             TolRMSG  ....  1.0000e-04 Eh/bohr
Max. Displacement        TolMAXD  ....  4.0000e-03 bohr
RMS Displacement         TolRMSD  ....  2.0000e-03 bohr
Strict Convergence                ....  False
------------------------------------------------------------------------------
                        ORCA OPTIMIZATION COORDINATE SETUP
------------------------------------------------------------------------------

The optimization will be done in new redundant internal coordinates
Making redundant internal coordinates   ...  (new redundants) done
Evaluating the initial hessian          ...  (Almloef) done
Evaluating the coordinates              ...  done
Calculating the B-matrix                .... done
Calculating the G-matrix                .... done
Diagonalizing the G-matrix              .... done
Imposing constraints:
 Iter   0:  RMS(Cart)=    0.0307589117 RMS(Int)=    4.4891752857
 Iter   1:  RMS(Cart)=    0.0307589117 RMS(Int)=    4.3197283258
 Iter   2:  RMS(Cart)=    0.0307589117 RMS(Int)=    4.1502682757
 Iter   3:  RMS(Cart)=    0.0307589117 RMS(Int)=    3.9807969952
 Iter   4:  RMS(Cart)=    0.0307589117 RMS(Int)=    3.8113160079
 Iter   5:  RMS(Cart)=    0.0307589117 RMS(Int)=    3.6418265737
 Iter   6:  RMS(Cart)=    0.0307589117 RMS(Int)=    3.4723297436
 Iter   7:  RMS(Cart)=    0.0307589117 RMS(Int)=    3.3028264013
 Iter   8:  RMS(Cart)=    0.0307589117 RMS(Int)=    3.1333172950
 Iter   9:  RMS(Cart)=    0.0307589117 RMS(Int)=    2.9638030626
 Iter  10:  RMS(Cart)=    0.0307589117 RMS(Int)=    2.7942842512
 Iter  11:  RMS(Cart)=    0.0307589117 RMS(Int)=    2.6247613327
 Iter  12:  RMS(Cart)=    0.0307589117 RMS(Int)=    2.4552347165
 Iter  13:  RMS(Cart)=    0.0307589117 RMS(Int)=    2.2857047592
 Iter  14:  RMS(Cart)=    0.0307589117 RMS(Int)=    2.1161717729
 Iter  15:  RMS(Cart)=    0.0307589117 RMS(Int)=    1.9466360322
 Iter  16:  RMS(Cart)=    0.0307589117 RMS(Int)=    1.7770977794
 Iter  17:  RMS(Cart)=    0.0307589117 RMS(Int)=    1.6075572291
 Iter  18:  RMS(Cart)=    0.0307589117 RMS(Int)=    1.4380145723
 Iter  19:  RMS(Cart)=    0.0307589117 RMS(Int)=    1.2684699793
 Iter  20:  RMS(Cart)=    0.0307589117 RMS(Int)=    1.0989236025
 Iter  21:  RMS(Cart)=    0.0307589117 RMS(Int)=    0.9293755788
 Iter  22:  RMS(Cart)=    0.0307589117 RMS(Int)=    0.7598260314
 Iter  23:  RMS(Cart)=    0.0307589117 RMS(Int)=    0.5902750715
 Iter  24:  RMS(Cart)=    0.0307589117 RMS(Int)=    0.4207227998
 Iter  25:  RMS(Cart)=    0.0307589117 RMS(Int)=    0.2511693076
 Iter  26:  RMS(Cart)=    0.0307589117 RMS(Int)=    0.0816146779
 Iter  27:  RMS(Cart)=    0.0125518933 RMS(Int)=    0.0124236363
 Iter  28:  RMS(Cart)=    0.0019106877 RMS(Int)=    0.0018911488
 Iter  29:  RMS(Cart)=    0.0002908484 RMS(Int)=    0.0002878738
 Iter  30:  RMS(Cart)=    0.0000442734 RMS(Int)=    0.0000438206
 Iter  31:  RMS(Cart)=    0.0000067394 RMS(Int)=    0.0000066704
 Iter  32:  RMS(Cart)=    0.0000010259 RMS(Int)=    0.0000010154
 Iter  33:  RMS(Cart)=    0.0000001562 RMS(Int)=    0.0000001546
 Iter  34:  RMS(Cart)=    0.0000000238 RMS(Int)=    0.0000000235
CONVERGED
The first mode is                       ....   94
The number of degrees of freedom        ....   63
Storing new coordinates                 .... done

    -----------------------------------------------------------------
                    Redundant Internal Coordinates


    -----------------------------------------------------------------
         Definition                    Initial Value    Approx d2E/dq
    -----------------------------------------------------------------
      1. B(C   1,C   0)                  4.0000         0.367084 C 
      2. B(C   4,C   2)                  1.7110         0.364000   
      3. B(C   4,C   1)                  1.5267         0.380289   
      4. B(H   5,C   2)                  1.1014         0.357560   
      5. B(H   6,C   2)                  1.0997         0.357943   
      6. B(C   7,C   0)                  1.5825         0.363660   
      7. B(H   8,C   1)                  1.1263         0.359313   
      8. B(H   9,C   1)                  1.0868         0.357649   
      9. B(C  10,H   3)                  1.0937         0.358565   
     10. B(C  10,C   2)                  1.7171         0.379983   
     11. B(C  10,C   7)                  1.7744         0.392944   
     12. B(H  11,C   7)                  1.0927         0.357744   
     13. B(H  12,C   7)                  1.1646         0.358304   
     14. B(H  13,C   4)                  1.1330         0.359614   
     15. B(H  14,C   4)                  1.1041         0.358614   
     16. B(H  15,C   0)                  1.0366         0.358549   
     17. B(H  16,C   0)                  1.1290         0.359269   
     18. B(Br 17,C  10)                  2.0280         0.226677   
     19. B(O  19,C  18)                  1.6525         0.216009   
     20. B(O  19,H   3)                  2.9405         0.000347   
     21. B(O  19,H   9)                  3.6423         0.000060   
     22. B(O  19,H  15)                  3.6793         0.000055   
     23. B(H  20,C  18)                  1.0738         0.387550   
     24. B(H  21,C  18)                  1.0735         0.387544   
     25. B(H  22,C  18)                  1.0716         0.387554   
     26. A(C   7,C   0,H  16)          118.9504         0.322768   
     27. A(C   7,C   0,H  15)          118.3530         0.322662   
     28. A(C   1,C   0,C   7)           85.7845         0.360607   
     29. A(C   1,C   0,H  15)          101.5871         0.323158   
     30. A(C   1,C   0,H  16)          124.5345         0.323265   
     31. A(H  15,C   0,H  16)          106.3402         0.290537   
     32. A(C   0,C   1,H   8)          122.7313         0.323271   
     33. A(C   0,C   1,H   9)           93.4483         0.323025   
     34. A(C   4,C   1,H   9)          117.4907         0.324905   
     35. A(H   8,C   1,H   9)          110.2155         0.290428   
     36. A(C   0,C   1,C   4)           96.4036         0.363369   
     37. A(C   4,C   1,H   8)          114.8351         0.325153   
     38. A(H   5,C   2,H   6)          110.0196         0.290242   
     39. A(C   4,C   2,C  10)          131.8076         0.362796   
     40. A(H   6,C   2,C  10)           96.9431         0.324905   
     41. A(H   5,C   2,C  10)          108.4821         0.324848   
     42. A(C   4,C   2,H   6)          110.5527         0.322622   
     43. A(C   4,C   2,H   5)           98.4572         0.322565   
     44. A(C  10,H   3,O  19)          155.1111         0.130381   
     45. A(C   2,C   4,H  14)          107.2447         0.322721   
     46. A(C   1,C   4,C   2)          107.0942         0.362846   
     47. A(C   1,C   4,H  13)          104.1880         0.325197   
     48. A(C   2,C   4,H  13)          116.0878         0.322868   
     49. A(C   1,C   4,H  14)          115.6415         0.325049   
     50. A(H  13,C   4,H  14)          106.9229         0.290589   
     51. A(C   0,C   7,H  11)          108.3914         0.322543   
     52. A(C  10,C   7,H  11)          104.1440         0.326673   
     53. A(C   0,C   7,H  12)          105.3773         0.322626   
     54. A(C  10,C   7,H  12)          108.9637         0.326757   
     55. A(C   0,C   7,C  10)          121.0511         0.364824   
     56. A(H  11,C   7,H  12)          108.4755         0.290312   
     57. A(C   1,H   9,O  19)          137.5391         0.116829   
     58. A(C   2,C  10,C   7)          131.5498         0.367579   
     59. A(C   2,C  10,Br 17)          104.6079         0.355861   
     60. A(H   3,C  10,Br 17)          109.4686         0.316794   
     61. A(C   7,C  10,Br 17)          100.1409         0.357895   
     62. A(H   3,C  10,C   7)          110.7575         0.326797   
     63. A(C   2,C  10,H   3)           99.2722         0.324998   
     64. A(C   0,H  15,O  19)          120.3800         0.116272   
     65. A(O  19,C  18,H  20)          109.4186         0.298625   
     66. A(O  19,C  18,H  21)          109.6495         0.298624   
     67. A(H  20,C  18,H  21)          109.4343         0.297664   
     68. A(O  19,C  18,H  22)          109.3018         0.298625   
     69. A(H  20,C  18,H  22)          109.6380         0.297665   
     70. A(H  21,C  18,H  22)          109.3853         0.297664   
     71. A(H   3,O  19,C  18)          149.9658         0.131310   
     72. A(H   9,O  19,C  18)           97.7848         0.117470   
     73. A(H   3,O  19,H   9)           53.4537         0.094720   
     74. A(H  15,O  19,C  18)          107.4334         0.116884   
     75. A(H   3,O  19,H  15)           59.3441         0.094602   
     76. A(H   9,O  19,H  15)           72.1990         0.092770   
     77. D(C   4,C   1,C   0,C   7)     32.3921         0.010783   
     78. D(H   9,C   1,C   0,C   7)    -85.7791         0.010783   
     79. D(H   8,C   1,C   0,H  16)     34.8817         0.010783   
     80. D(C   4,C   1,C   0,H  15)    150.4904         0.010783   
     81. D(H   9,C   1,C   0,H  16)    151.6416         0.010783   
     82. D(H   8,C   1,C   0,C   7)    157.4610         0.010783   
     83. D(H   8,C   1,C   0,H  15)    -84.4407         0.010783   
     84. D(H   9,C   1,C   0,H  15)     32.3192         0.010783   
     85. D(C   4,C   1,C   0,H  16)    -90.1872         0.010783   
     86. D(H  13,C   4,C   2,H   6)    -83.3768         0.010614   
     87. D(C   2,C   4,C   1,H   9)     47.7354         0.011525   
     88. D(H  14,C   4,C   2,H   6)     36.0521         0.010614   
     89. D(H  13,C   4,C   1,H   8)     56.2823         0.011525   
     90. D(H  14,C   4,C   2,H   5)    151.2269         0.010614   
     91. D(H  14,C   4,C   1,H   9)    167.1846         0.011525   
     92. D(C   2,C   4,C   1,H   8)    179.8070         0.011525   
     93. D(H  13,C   4,C   2,H   5)     31.7979         0.010614   
     94. D(H  13,C   4,C   2,C  10)    156.0579         0.010614   
     95. D(C   1,C   4,C   2,H   5)    -84.0571         0.010614   
     96. D(H  14,C   4,C   2,C  10)    -84.5132         0.010614   
     97. D(C   1,C   4,C   2,H   6)    160.7681         0.010614   
     98. D(H  14,C   4,C   1,H   8)    -60.7437         0.011525   
     99. D(C   2,C   4,C   1,C   0)    -49.5396         0.011525   
    100. D(H  13,C   4,C   1,H   9)    -75.7893         0.011525   
    101. D(H  14,C   4,C   1,C   0)     69.9097         0.011525   
    102. D(H  13,C   4,C   1,C   0)   -173.0642         0.011525   
    103. D(C   1,C   4,C   2,C  10)     40.2028         0.010614   
    104. D(C  10,C   7,C   0,H  15)    -78.9260         0.010595   
    105. D(C  10,C   7,C   0,C   1)     21.9731         0.010595   
    106. D(H  11,C   7,C   0,C   1)    -98.0776         0.010595   
    107. D(C  10,C   7,C   0,H  16)    149.4790         0.010595   
    108. D(H  11,C   7,C   0,H  15)    161.0232         0.010595   
    109. D(H  11,C   7,C   0,H  16)     29.4283         0.010595   
    110. D(H  12,C   7,C   0,C   1)    145.9590         0.010595   
    111. D(H  12,C   7,C   0,H  15)     45.0599         0.010595   
    112. D(H  12,C   7,C   0,H  16)    -86.5351         0.010595   
    113. D(O  19,H   9,C   1,C   0)     -0.5530         0.119468   
    114. D(O  19,H   9,C   1,C   4)    -99.6039         0.119468   
    115. D(O  19,H   9,C   1,H   8)    126.2759         0.119468   
    116. D(H   3,C  10,C   2,C   4)    -85.8342         0.011508   
    117. D(Br 17,C  10,C   7,H  11)    -67.2493         0.012268   
    118. D(H   3,C  10,C   2,H   6)    148.4773         0.011508   
    119. D(C   7,C  10,C   2,C   4)     42.8140         0.011508   
    120. D(H   3,C  10,C   7,C   0)     55.1832         0.012268   
    121. D(C   7,C  10,C   2,H   6)    -82.8746         0.011508   
    122. D(Br 17,C  10,C   2,C   4)    161.1159         0.011508   
    123. D(Br 17,C  10,C   2,H   5)    -78.4218         0.011508   
    124. D(Br 17,C  10,C   2,H   6)     35.4273         0.011508   
    125. D(C   2,C  10,H   3,O  19)    120.1511         0.120213   
    126. D(C   7,C  10,H   3,O  19)    -21.1628         0.120213   
    127. D(Br 17,C  10,H   3,O  19)   -130.6559         0.120213   
    128. D(C   2,C  10,C   7,C   0)    -69.2995         0.012268   
    129. D(C   2,C  10,C   7,H  11)     52.8083         0.012268   
    130. D(C   7,C  10,C   2,H   5)    163.2763         0.011508   
    131. D(C   2,C  10,C   7,H  12)    168.4126         0.012268   
    132. D(H   3,C  10,C   7,H  11)    177.2910         0.012268   
    133. D(H   3,C  10,C   7,H  12)    -67.1047         0.012268   
    134. D(H   3,C  10,C   2,H   5)     34.6282         0.011508   
    135. D(Br 17,C  10,C   7,C   0)    170.6429         0.012268   
    136. D(Br 17,C  10,C   7,H  12)     48.3549         0.012268   
    137. D(O  19,H  15,C   0,C   1)    -40.7757         0.120200   
    138. D(O  19,H  15,C   0,C   7)     50.6786         0.120200   
    139. D(O  19,H  15,C   0,H  16)   -172.3175         0.120200   
    140. D(C  18,O  19,H   3,C  10)    -67.3864         0.001500   
    141. D(H   9,O  19,H   3,C  10)    -86.4443         0.001500   
    142. D(H  15,O  19,C  18,H  20)    133.2763         0.004963   
    143. D(C  18,O  19,H   9,C   1)   -114.1206         0.001500   
    144. D(H   3,O  19,H   9,C   1)     56.3851         0.001500   
    145. D(H   3,O  19,C  18,H  22)     71.5663         0.004963   
    146. D(C  18,O  19,H  15,C   0)    133.9185         0.001500   
    147. D(H   3,O  19,H  15,C   0)    -16.3894         0.001500   
    148. D(H   9,O  19,H  15,C   0)     41.1509         0.001500   
    149. D(H   3,O  19,C  18,H  20)   -168.3653         0.004963   
    150. D(H  15,O  19,H   9,C   1)     -8.2365         0.001500   
    151. D(H   3,O  19,C  18,H  21)    -48.3336         0.004963   
    152. D(H   9,O  19,C  18,H  20)   -153.0126         0.004963   
    153. D(H   9,O  19,C  18,H  21)    -32.9809         0.004963   
    154. D(H  15,O  19,H   3,C  10)      3.3823         0.001500   
    155. D(H   9,O  19,C  18,H  22)     86.9190         0.004963   
    156. D(H  15,O  19,C  18,H  21)   -106.6920         0.004963   
    157. D(H  15,O  19,C  18,H  22)     13.2078         0.004963   
    -----------------------------------------------------------------

Number of atoms                         .... 23
Number of degrees of freedom            .... 157

         *************************************************************
         *                GEOMETRY OPTIMIZATION CYCLE   1            *
         *************************************************************
      -----------------------------------------------------------      
     |                   =====================                   |     
     |                           x T B                           |     
     |                   =====================                   |     
     |                         S. Grimme                         |     
     |          Mulliken Center for Theoretical Chemistry        |     
     |                    University of Bonn                     |     
      -----------------------------------------------------------      

   * xtb version 6.4.0 (d4b70c2) compiled by 'ehlert@majestix' on 2021-02-01

   xtb is free software: you can redistribute it and/or modify it under
   the terms of the GNU Lesser General Public License as published by
   the Free Software Foundation, either version 3 of the License, or
   (at your option) any later version.
   
   xtb is distributed in the hope that it will be useful,
   but WITHOUT ANY WARRANTY; without even the implied warranty of
   MERCHANTABILITY or FITNESS FOR A PARTICULAR PURPOSE.  See the
   GNU Lesser General Public License for more details.
   
   Cite this work as:
   * C. Bannwarth, E. Caldeweyher, S. Ehlert, A. Hansen, P. Pracht,
     J. Seibert, S. Spicher, S. Grimme, WIREs Comput. Mol. Sci., 2020,
     e01493. DOI: 10.1002/wcms.1493
   
   for GFN2-xTB:
   * C. Bannwarth, S. Ehlert and S. Grimme., J. Chem. Theory Comput., 2019,
     15, 1652-1671. DOI: 10.1021/acs.jctc.8b01176
   for GFN1-xTB:
   * S. Grimme, C. Bannwarth, P. Shushkov, J. Chem. Theory Comput., 2017,
     13, 1989-2009. DOI: 10.1021/acs.jctc.7b00118
   for GFN0-xTB:
   * P. Pracht, E. Caldeweyher, S. Ehlert, S. Grimme, ChemRxiv, 2019, preprint.
     DOI: 10.26434/chemrxiv.8326202.v1
   for GFN-FF:
   * S. Spicher and S. Grimme, Angew. Chem. Int. Ed., 2020, 59, 15665-15673.
     DOI: 10.1002/anie.202004239
   
   for DFT-D4:
   * E. Caldeweyher, C. Bannwarth and S. Grimme, J. Chem. Phys., 2017,
     147, 034112. DOI: 10.1063/1.4993215
   * E. Caldeweyher, S. Ehlert, A. Hansen, H. Neugebauer, S. Spicher,
     C. Bannwarth and S. Grimme, J. Chem. Phys., 2019, 150, 154122.
     DOI: 10.1063/1.5090222
   * E. Caldeweyher, J.-M. Mewes, S. Ehlert and S. Grimme, Phys. Chem. Chem. Phys.
     2020, 22, 8499-8512. DOI: 10.1039/D0CP00502A
   
   for sTDA-xTB:
   * S. Grimme and C. Bannwarth, J. Chem. Phys., 2016, 145, 054103.
     DOI: 10.1063/1.4959605
   
   in the mass-spec context:
   * V. Asgeirsson, C. Bauer and S. Grimme, Chem. Sci., 2017, 8, 4879.
     DOI: 10.1039/c7sc00601b
   * J. Koopman and S. Grimme, ACS Omega 2019, 4, 12, 15120-15133.
     DOI: 10.1021/acsomega.9b02011
   
   for metadynamics refer to:
   * S. Grimme, J. Chem. Theory Comput., 2019, 155, 2847-2862
     DOI: 10.1021/acs.jctc.9b00143
   
   with help from (in alphabetical order)
   P. Atkinson, C. Bannwarth, F. Bohle, G. Brandenburg, E. Caldeweyher
   M. Checinski, S. Dohm, S. Ehlert, S. Ehrlich, I. Gerasimov, J. Koopman
   C. Lavinge, S. Lehtola, F. März, M. Müller, F. Musil, H. Neugebauer
   J. Pisarek, P. Pracht, J. Seibert, P. Shushkov, S. Spicher, M. Stahn
   T. Strunk, J. Stückrath, T. Rose, and J. Unsleber
   
 * started run on 2021/11/09 at 17:23:28.861     

           -------------------------------------------------
          |                Calculation Setup                |
           -------------------------------------------------

          program call               : /opt/orca/otool_xtb scants+numfreq_XTB.xyz --grad -c -1 -u 0 -P 2 --namespace scants+numfreq --gbsa methanol
          calculation namespace      : scants+numfreq
          coordinate file            : scants+numfreq_XTB.xyz
          omp threads                :                     2
          number of atoms            :                    23
          number of electrons        :                    56
          charge                     :                    -1
          spin                       :                   0.0
          first test random number   :      0.87562081982743

   ID    Z sym.   atoms
    1    6 C      1-3, 5, 8, 11, 19
    2    1 H      4, 6, 7, 9, 10, 12-17, 21-23
    3   35 Br     18
    4    8 O      20

molecular fragmentation (1/2 indicates fragments):
11111111111111111122222
# atoms in fragment 1/2:    18     5
 fragment masses (1/2) :      163.06       31.03
CMA distance (Bohr)    :   9.732
constraining FC (au)   :  0.0500
########################################################################
[WARNING] Please study the warnings concerning your input carefully
-1- prog_main_parseArguments: Process number higher than OMP_NUM_THREADS, I hope you know what you are doing.
########################################################################

           -------------------------------------------------
          |                 G F N 2 - x T B                 |
           -------------------------------------------------

        Reference                      10.1021/acs.jctc.8b01176
      * Hamiltonian:
        H0-scaling (s, p, d)           1.850000    2.230000    2.230000
        zeta-weighting                 0.500000
      * Dispersion:
        s8                             2.700000
        a1                             0.520000
        a2                             5.000000
        s9                             5.000000
      * Repulsion:
        kExp                           1.500000    1.000000
        rExp                           1.000000
      * Coulomb:
        alpha                          2.000000
        third order                    shell-resolved
        anisotropic                    true
        a3                             3.000000
        a5                             4.000000
        cn-shift                       1.200000
        cn-exp                         4.000000
        max-rad                        5.000000

      * Solvation model:               GBSA
        Solvent                        methanol
        Parameter file                 internal GFN2-xTB/GBSA
        Dielectric constant                3.2700E+01
        Reference state                gsolv [1 M gas/solution]
        Free energy shift                  3.3569E-03 Eh       2.1065E+00 kcal/mol
        Temperature                        2.9815E+02 K
        Density                            7.9200E-01 kg/L
        Solvent mass                       3.2040E+01 g/mol
        Interaction kernel             Still
        Born radius scaling (c1)           1.6087E+00
        Born radii integrator          GBOBC
        Born offset                        5.6550E-04 a0       1.0686E-03 AA
        H-bond correction              true
        Ion screening                  false
        Surface tension                    1.0000E-05 Eh       1.5569E+01 dyn/cm
        Grid points                               230 per atom

          ...................................................
          :                      SETUP                      :
          :.................................................:
          :  # basis functions                  56          :
          :  # atomic orbitals                  55          :
          :  # shells                           33          :
          :  # electrons                        56          :
          :  max. iterations                   250          :
          :  Hamiltonian                  GFN2-xTB          :
          :  restarted?                      false          :
          :  GBSA solvation                   true          :
          :  PC potential                    false          :
          :  electronic temp.          300.0000000     K    :
          :  accuracy                    1.0000000          :
          :  -> integral cutoff          0.2500000E+02      :
          :  -> integral neglect         0.1000000E-07      :
          :  -> SCF convergence          0.1000000E-05 Eh   :
          :  -> wf. convergence          0.1000000E-03 e    :
          :  Broyden damping             0.4000000          :
          ...................................................

 iter      E             dE          RMSdq      gap      omega  full diag
   1    -30.0474107 -0.300474E+02  0.614E+00    0.25       0.0  T
   2    -29.6752635  0.372147E+00  0.651E+00    3.05       1.0  T
   3    -30.0262829 -0.351019E+00  0.414E+00    0.01       1.0  T
   4    -30.0517551 -0.254722E-01  0.473E+00    0.26       1.0  T
   5    -30.0068306  0.449245E-01  0.496E+00    1.78       1.0  T
   6    -30.1354968 -0.128666E+00  0.411E+00    0.43       1.0  T
   7    -30.0871215  0.483753E-01  0.423E+00    0.33       1.0  T
   8    -30.2063825 -0.119261E+00  0.356E+00    0.19       1.0  T
   9    -30.1165621  0.898205E-01  0.405E+00    0.29       1.0  T
  10    -29.7778935  0.338669E+00  0.536E+00    0.01       1.0  T
  11    -30.3397334 -0.561840E+00  0.255E+00    0.10       1.0  T
  12    -29.8631857  0.476548E+00  0.499E+00    0.01       1.0  T
  13    -30.4778473 -0.614662E+00  0.584E-01    0.03       1.0  T
  14    -30.4798359 -0.198868E-02  0.564E-01    0.04       1.0  T
  15    -30.2521291  0.227707E+00  0.302E+00    0.00       1.0  T
  16    -30.3536150 -0.101486E+00  0.227E+00    0.01       1.0  T
  17    -30.2854357  0.681793E-01  0.278E+00    0.00       1.0  T
  18    -30.3320515 -0.466158E-01  0.242E+00    0.01       1.0  T
  19    -30.4866066 -0.154555E+00  0.151E-01    0.03       1.0  T
  20    -30.4866903 -0.837869E-04  0.138E-01    0.03       1.0  T
  21    -30.4866724  0.179265E-04  0.141E-01    0.03       1.0  T
  22    -30.4864693  0.203128E-03  0.162E-01    0.03       1.0  T
  23    -30.4854090  0.106025E-02  0.254E-01    0.03       1.0  T
  24    -30.4851522  0.256815E-03  0.268E-01    0.03       1.0  T
  25    -30.4860739 -0.921698E-03  0.198E-01    0.03       1.0  T
  26    -30.4867751 -0.701185E-03  0.114E-01    0.03       1.0  T
  27    -30.4869815 -0.206431E-03  0.745E-02    0.03       1.0  T
  28    -30.4870969 -0.115333E-03  0.373E-02    0.03       1.0  T
  29    -30.4871302 -0.333436E-04  0.134E-02    0.03       1.6  T
  30    -30.4871343 -0.411037E-05  0.553E-03    0.03       3.8  T
  31    -30.4871349 -0.622928E-06  0.277E-03    0.03       7.5  T
  32    -30.4871351 -0.129413E-06  0.165E-03    0.03      12.6  T
  33    -30.4871351 -0.238348E-07  0.141E-03    0.03      14.8  T
  34    -30.4871351 -0.424225E-07  0.467E-04    0.03      44.7  T
  35    -30.4871351 -0.492161E-08  0.213E-04    0.03      98.1  T

   *** convergence criteria satisfied after 35 iterations ***

         #    Occupation            Energy/Eh            Energy/eV
      -------------------------------------------------------------
         1        2.0000           -0.8308150             -22.6076
       ...           ...                  ...                  ...
        22        2.0000           -0.4174956             -11.3606
        23        2.0000           -0.4173988             -11.3580
        24        2.0000           -0.4026974             -10.9580
        25        2.0000           -0.3993024             -10.8656
        26        1.9260           -0.3156932              -8.5904
        27        1.8924           -0.3153203              -8.5803
        28        1.3585           -0.3133097              -8.5256 (HOMO)
        29        0.8231           -0.3122571              -8.4969 (LUMO)
        30                         -0.2342620              -6.3746
        31                         -0.1520728              -4.1381
        32                         -0.1085675              -2.9543
        33                         -0.0711932              -1.9373
       ...                                ...                  ...
        55                          0.3343830               9.0990
      -------------------------------------------------------------
                  HL-Gap            0.0010527 Eh            0.0286 eV
             Fermi-level           -0.3125968 Eh           -8.5062 eV

 SCC (total)                   0 d,  0 h,  0 min,  0.060 sec
 SCC setup                      ...        0 min,  0.001 sec (  1.499%)
 Dispersion                     ...        0 min,  0.000 sec (  0.330%)
 classical contributions        ...        0 min,  0.000 sec (  0.071%)
 integral evaluation            ...        0 min,  0.005 sec (  8.233%)
 iterations                     ...        0 min,  0.041 sec ( 69.121%)
 molecular gradient             ...        0 min,  0.010 sec ( 17.440%)
 printout                       ...        0 min,  0.002 sec (  3.214%)

         :::::::::::::::::::::::::::::::::::::::::::::::::::::
         ::                     SUMMARY                     ::
         :::::::::::::::::::::::::::::::::::::::::::::::::::::
         :: total energy             -30.224456058368 Eh    ::
         :: total w/o Gsasa/hb       -30.210686786647 Eh    ::
         :: gradient norm              0.186071825892 Eh/a0 ::
         :: HOMO-LUMO gap              0.028644745117 eV    ::
         ::.................................................::
         :: SCC energy               -30.487135147726 Eh    ::
         :: -> isotropic ES            0.215969995408 Eh    ::
         :: -> anisotropic ES          0.005647475559 Eh    ::
         :: -> anisotropic XC          0.009383977137 Eh    ::
         :: -> dispersion             -0.014359831271 Eh    ::
         :: -> Gsolv                  -0.115179986532 Eh    ::
         ::    -> Gborn               -0.101410714811 Eh    ::
         ::    -> Gsasa               -0.015260674906 Eh    ::
         ::    -> Ghb                 -0.001865526338 Eh    ::
         ::    -> Gshift               0.003356929523 Eh    ::
         :: repulsion energy           0.262476396779 Eh    ::
         :: add. restraining           0.000000000000 Eh    ::
         :: total charge              -1.000000000000 e     ::
         :::::::::::::::::::::::::::::::::::::::::::::::::::::

           -------------------------------------------------
          |                Property Printout                |
           -------------------------------------------------

    * Orbital Energies and Occupations

         #    Occupation            Energy/Eh            Energy/eV
      -------------------------------------------------------------
         1        2.0000           -0.8308150             -22.6076
       ...           ...                  ...                  ...
        16        2.0000           -0.4686618             -12.7529
        17        2.0000           -0.4621360             -12.5754
        18        2.0000           -0.4549959             -12.3811
        19        2.0000           -0.4491214             -12.2212
        20        2.0000           -0.4373021             -11.8996
        21        2.0000           -0.4249280             -11.5629
        22        2.0000           -0.4174956             -11.3606
        23        2.0000           -0.4173988             -11.3580
        24        2.0000           -0.4026974             -10.9580
        25        2.0000           -0.3993024             -10.8656
        26        1.9260           -0.3156932              -8.5904
        27        1.8924           -0.3153203              -8.5803
        28        1.3585           -0.3133097              -8.5256 (HOMO)
        29        0.8231           -0.3122571              -8.4969 (LUMO)
        30                         -0.2342620              -6.3746
        31                         -0.1520728              -4.1381
        32                         -0.1085675              -2.9543
        33                         -0.0711932              -1.9373
        34                         -0.0020529              -0.0559
        35                          0.0404312               1.1002
        36                          0.0427284               1.1627
        37                          0.0570277               1.5518
        38                          0.0715025               1.9457
        39                          0.0801604               2.1813
       ...                                ...                  ...
        55                          0.3343830               9.0990
      -------------------------------------------------------------
                  HL-Gap            0.0010527 Eh            0.0286 eV
             Fermi-level           -0.3125968 Eh           -8.5062 eV

     #   Z          covCN         q      C6AA      α(0)
     1   6 C        2.814    -0.130    31.296     9.166
     2   6 C        2.819    -0.107    30.692     9.077
     3   6 C        3.709    -0.062    21.835     6.679
     4   1 H        0.924     0.027     2.626     2.534
     5   6 C        3.734    -0.049    21.547     6.625
     6   1 H        0.923     0.039     2.465     2.455
     7   1 H        0.923     0.061     2.191     2.315
     8   6 C        3.708    -0.035    21.336     6.602
     9   1 H        0.918     0.014     2.833     2.632
    10   1 H        0.925     0.010     2.882     2.655
    11   6 C        3.611     0.036    20.465     6.532
    12   1 H        0.924     0.059     2.207     2.323
    13   1 H        0.906     0.034     2.531     2.489
    14   1 H        0.917     0.068     2.113     2.274
    15   1 H        0.923     0.060     2.196     2.317
    16   1 H        0.929     0.002     3.022     2.718
    17   1 H        0.918     0.014     2.827     2.630
    18  35 Br       0.974    -0.225   191.286    22.300
    19   6 C        3.515     0.029    21.475     6.843
    20   8 O        0.736    -0.834    32.726     7.666
    21   1 H        0.926    -0.003     3.106     2.756
    22   1 H        0.926    -0.005     3.145     2.773
    23   1 H        0.926    -0.004     3.132     2.768

 Mol. C6AA /au·bohr⁶  :       5837.785393
 Mol. C8AA /au·bohr⁸  :     158531.881635
 Mol. α(0) /au        :        117.129395


Wiberg/Mayer (AO) data.
largest (>0.10) Wiberg bond orders for each atom

 ---------------------------------------------------------------------------
     #   Z sym  total        # sym  WBO       # sym  WBO       # sym  WBO
 ---------------------------------------------------------------------------
     1   6 C    3.108 --     8 C    1.059    16 H    0.988    17 H    0.977
     2   6 C    3.111 --     5 C    1.071    10 H    0.982     9 H    0.976
     3   6 C    3.965 --     7 H    0.985     6 H    0.985     5 C    0.971
                            11 C    0.963
     4   1 H    0.999 --    11 C    0.986
     5   6 C    3.967 --     2 C    1.071     3 C    0.971    15 H    0.970
                            14 H    0.928
     6   1 H    0.997 --     3 C    0.985
     7   1 H    0.996 --     3 C    0.985
     8   6 C    3.964 --     1 C    1.059    12 H    0.985    13 H    0.951
                            11 C    0.921
     9   1 H    0.994 --     2 C    0.976
    10   1 H    0.995 --     2 C    0.982
    11   6 C    3.856 --     4 H    0.986     3 C    0.963    18 Br   0.946
                             8 C    0.921
    12   1 H    0.996 --     8 C    0.985
    13   1 H    0.967 --     8 C    0.951
    14   1 H    0.944 --     5 C    0.928
    15   1 H    0.985 --     5 C    0.970
    16   1 H    0.996 --     1 C    0.988
    17   1 H    0.996 --     1 C    0.977
    18  35 Br   1.016 --    11 C    0.946
    19   6 C    3.992 --    20 O    1.020    22 H    0.991    23 H    0.991
                            21 H    0.991
    20   8 O    1.038 --    19 C    1.020
    21   1 H    0.996 --    19 C    0.991
    22   1 H    0.997 --    19 C    0.991
    23   1 H    0.996 --    19 C    0.991
 ---------------------------------------------------------------------------

Topologies differ in total number of bonds
Writing topology from bond orders to xtbtopo.mol

molecular dipole:
                 x           y           z       tot (Debye)
 q only:       -1.358       3.367       7.850
   full:       -0.121       3.306       7.556      20.965
molecular quadrupole (traceless):
                xx          xy          yy          xz          yz          zz
 q only:       22.167       5.257      29.424      16.954     -33.991     -51.591
  q+dip:        8.097       2.684      36.981       5.661     -33.215     -45.078
   full:        9.346       2.592      36.353       6.359     -33.104     -45.699


           -------------------------------------------------
          | TOTAL ENERGY              -30.224456058368 Eh   |
          | GRADIENT NORM               0.186071825892 Eh/α |
          | HOMO-LUMO GAP               0.028644745117 eV   |
           -------------------------------------------------

------------------------------------------------------------------------
 * finished run on 2021/11/09 at 17:23:28.968     
------------------------------------------------------------------------
 total:
 * wall-time:     0 d,  0 h,  0 min,  0.106 sec
 *  cpu-time:     0 d,  0 h,  0 min,  0.166 sec
 * ratio c/w:     1.564 speedup
 SCF:
 * wall-time:     0 d,  0 h,  0 min,  0.061 sec
 *  cpu-time:     0 d,  0 h,  0 min,  0.110 sec
 * ratio c/w:     1.788 speedup


-------------------------   --------------------
FINAL SINGLE POINT ENERGY       -30.224456058370
-------------------------   --------------------

------------------------------------------------------------------------------
                         ORCA GEOMETRY RELAXATION STEP
------------------------------------------------------------------------------

Reading the OPT-File                    .... done
Getting information on internals        .... done
Copying old internal coords+grads       .... done
Making the new internal coordinates     .... (new redundants).... done
Validating the new internal coordinates .... (new redundants).... done
Calculating the B-matrix                .... done
Calculating the G,G- and P matrices     .... done
Transforming gradient to internals      .... done
Projecting the internal gradient        .... done
Number of atoms                         ....  23
Number of internal coordinates          .... 157
Current Energy                          ....   -30.224456058 Eh
Current gradient norm                   ....     0.186071826 Eh/bohr
Maximum allowed component of the step   ....  0.300
Current trust radius                    ....  0.300
Evaluating the initial hessian          ....  (Almloef) done
Projecting the Hessian                  .... done
Forming the augmented Hessian           .... done
Diagonalizing the augmented Hessian     .... done
Last element of RFO vector              ....  0.855899636
Lowest eigenvalues of augmented Hessian:
 -0.102396571  0.002927760  0.004570606  0.004871885  0.006959544
Length of the computed step             ....  0.604208654
Warning: the length of the step is outside the trust region - taking restricted step instead
The input lambda is                     ....    -0.102397
   iter:   1  x=   -0.197834  g=    2.882170 f(x)=     0.275068
   iter:   2  x=   -0.299010  g=    1.061862 f(x)=     0.107435
   iter:   3  x=   -0.363791  g=    0.506843 f(x)=     0.032834
   iter:   4  x=   -0.380268  g=    0.345290 f(x)=     0.005689
   iter:   5  x=   -0.381056  g=    0.315696 f(x)=     0.000249
   iter:   6  x=   -0.381058  g=    0.314368 f(x)=     0.000001
   iter:   7  x=   -0.381058  g=    0.314366 f(x)=     0.000000
   iter:   8  x=   -0.381058  g=    0.314366 f(x)=    -0.000000
The output lambda is                    ....    -0.381058 (8 iterations)
The final length of the internal step   ....  0.300000000
Converting the step to cartesian space:
 Initial RMS(Int)=    0.0239426065
Transforming coordinates:
 Iter   0:  RMS(Cart)=    0.0610260459 RMS(Int)=    0.5015539255
 Iter   1:  RMS(Cart)=    0.0005992174 RMS(Int)=    0.0003598082
 Iter   2:  RMS(Cart)=    0.0000159346 RMS(Int)=    0.0000094128
 Iter   3:  RMS(Cart)=    0.0000006527 RMS(Int)=    0.0000003207
 Iter   4:  RMS(Cart)=    0.0000000276 RMS(Int)=    0.0000000118
Imposing constraints:
 Iter   0:  RMS(Cart)=    0.0000536741 RMS(Int)=    0.0000519416
 Iter   1:  RMS(Cart)=    0.0000083546 RMS(Int)=    0.0000080849
 Iter   2:  RMS(Cart)=    0.0000013004 RMS(Int)=    0.0000012584
 Iter   3:  RMS(Cart)=    0.0000002024 RMS(Int)=    0.0000001959
 Iter   4:  RMS(Cart)=    0.0000000315 RMS(Int)=    0.0000000305
CONVERGED
done
Storing new coordinates                 .... done

                                .--------------------.
          ----------------------|Geometry convergence|-------------------------
          Item                value                   Tolerance       Converged
          ---------------------------------------------------------------------
          RMS gradient        0.0140961221            0.0001000000      NO
          MAX gradient        0.0998763731            0.0003000000      NO
          RMS step            0.0239426065            0.0020000000      NO
          MAX step            0.1680324638            0.0040000000      NO
          ........................................................
          Max(Bonds)      0.0889      Max(Angles)    2.10
          Max(Dihed)        1.72      Max(Improp)    0.00
          ---------------------------------------------------------------------

The optimization has not yet converged - more geometry cycles are needed


    ---------------------------------------------------------------------------
                         Redundant Internal Coordinates
                            (Angstroem and degrees)

        Definition                    Value    dE/dq     Step     New-Value
    ----------------------------------------------------------------------------
     1. B(C   1,C   0)                4.0000  0.026554 -0.0000    4.0000 C 
     2. B(C   4,C   2)                1.7110  0.054744 -0.0500    1.6610   
     3. B(C   4,C   1)                1.5267  0.031282 -0.0220    1.5047   
     4. B(H   5,C   2)                1.1014  0.009679 -0.0071    1.0944   
     5. B(H   6,C   2)                1.0997  0.006443 -0.0047    1.0950   
     6. B(C   7,C   0)                1.5825  0.054321 -0.0419    1.5406   
     7. B(H   8,C   1)                1.1263  0.023587 -0.0179    1.1084   
     8. B(H   9,C   1)                1.0868  0.004654 -0.0035    1.0834   
     9. B(C  10,H   3)                1.0937  0.001816 -0.0018    1.0919   
    10. B(C  10,C   2)                1.7171  0.042459 -0.0389    1.6782   
    11. B(C  10,C   7)                1.7744  0.052462 -0.0520    1.7224   
    12. B(H  11,C   7)                1.0927  0.003407 -0.0024    1.0903   
    13. B(H  12,C   7)                1.1646  0.036018 -0.0291    1.1355   
    14. B(H  13,C   4)                1.1330  0.021732 -0.0167    1.1163   
    15. B(H  14,C   4)                1.1041  0.010416 -0.0076    1.0965   
    16. B(H  15,C   0)                1.0366 -0.031057  0.0203    1.0570   
    17. B(H  16,C   0)                1.1290  0.026426 -0.0202    1.1088   
    18. B(Br 17,C  10)                2.0280  0.025036 -0.0227    2.0053   
    19. B(O  19,C  18)                1.6525  0.099876 -0.0889    1.5636   
    20. B(O  19,H   3)                2.9405  0.000913 -0.0020    2.9385   
    21. B(O  19,H   9)                3.6423 -0.000699  0.0024    3.6446   
    22. B(O  19,H  15)                3.6793  0.004913 -0.0046    3.6747   
    23. B(H  20,C  18)                1.0738 -0.008172  0.0057    1.0795   
    24. B(H  21,C  18)                1.0735 -0.008521  0.0059    1.0794   
    25. B(H  22,C  18)                1.0716 -0.009594  0.0066    1.0782   
    26. A(C   7,C   0,H  16)          118.95 -0.000920    0.01    118.96   
    27. A(C   7,C   0,H  15)          118.35 -0.000808    0.15    118.50   
    28. A(C   1,C   0,C   7)           85.78  0.011236   -1.35     84.44   
    29. A(C   1,C   0,H  15)          101.59 -0.000888    0.01    101.60   
    30. A(C   1,C   0,H  16)          124.53 -0.002405    0.30    124.84   
    31. A(H  15,C   0,H  16)          106.34 -0.004150    0.60    106.94   
    32. A(C   0,C   1,H   8)          122.73 -0.006289    0.79    123.52   
    33. A(C   0,C   1,H   9)           93.45 -0.001796   -0.02     93.43   
    34. A(C   4,C   1,H   9)          117.49  0.003950   -0.26    117.23   
    35. A(H   8,C   1,H   9)          110.22 -0.001429    0.28    110.50   
    36. A(C   0,C   1,C   4)           96.40  0.018141   -2.10     94.30   
    37. A(C   4,C   1,H   8)          114.84 -0.009370    0.93    115.76   
    38. A(H   5,C   2,H   6)          110.02  0.001272   -0.09    109.93   
    39. A(C   4,C   2,C  10)          131.81  0.002013    0.09    131.90   
    40. A(H   6,C   2,C  10)           96.94 -0.010615    0.93     97.88   
    41. A(H   5,C   2,C  10)          108.48  0.008833   -0.93    107.56   
    42. A(C   4,C   2,H   6)          110.55  0.009045   -0.91    109.64   
    43. A(C   4,C   2,H   5)           98.46 -0.009382    0.78     99.24   
    44. A(C  10,H   3,O  19)          155.11 -0.003540    0.43    155.54   
    45. A(C   2,C   4,H  14)          107.24  0.003047   -0.21    107.04   
    46. A(C   1,C   4,C   2)          107.09 -0.015483    1.42    108.51   
    47. A(C   1,C   4,H  13)          104.19  0.000538    0.06    104.25   
    48. A(C   2,C   4,H  13)          116.09  0.013787   -1.46    114.63   
    49. A(C   1,C   4,H  14)          115.64  0.004486   -0.37    115.27   
    50. A(H  13,C   4,H  14)          106.92 -0.005414    0.46    107.39   
    51. A(C   0,C   7,H  11)          108.39  0.002043   -0.04    108.35   
    52. A(C  10,C   7,H  11)          104.14  0.004563   -0.41    103.74   
    53. A(C   0,C   7,H  12)          105.38 -0.002104    0.19    105.57   
    54. A(C  10,C   7,H  12)          108.96  0.013615   -1.35    107.61   
    55. A(C   0,C   7,C  10)          121.05 -0.014309    1.28    122.33   
    56. A(H  11,C   7,H  12)          108.48 -0.003335    0.28    108.76   
    57. A(C   1,H   9,O  19)          137.54 -0.002563    0.21    137.74   
    58. A(C   2,C  10,C   7)          131.55 -0.000679    0.34    131.89   
    59. A(C   2,C  10,Br 17)          104.61  0.004933   -0.63    103.98   
    60. A(H   3,C  10,Br 17)          109.47  0.002446   -0.29    109.18   
    61. A(C   7,C  10,Br 17)          100.14  0.000156   -0.20     99.94   
    62. A(H   3,C  10,C   7)          110.76 -0.001404    0.13    110.89   
    63. A(C   2,C  10,H   3)           99.27 -0.004030    0.45     99.72   
    64. A(C   0,H  15,O  19)          120.38  0.001891   -0.04    120.34   
    65. A(O  19,C  18,H  20)          109.42  0.007761   -0.66    108.76   
    66. A(O  19,C  18,H  21)          109.65  0.007974   -0.67    108.98   
    67. A(H  20,C  18,H  21)          109.43 -0.007874    0.67    110.10   
    68. A(O  19,C  18,H  22)          109.30  0.007580   -0.64    108.66   
    69. A(H  20,C  18,H  22)          109.64 -0.007617    0.64    110.28   
    70. A(H  21,C  18,H  22)          109.39 -0.007810    0.66    110.05   
    71. A(H   3,O  19,C  18)          149.97  0.004579   -0.50    149.47   
    72. A(H   9,O  19,C  18)           97.78 -0.004045    0.32     98.11   
    73. A(H   3,O  19,H   9)           53.45  0.008170   -0.73     52.72   
    74. A(H  15,O  19,C  18)          107.43 -0.006908    0.79    108.23   
    75. A(H   3,O  19,H  15)           59.34  0.008268   -0.89     58.45   
    76. A(H   9,O  19,H  15)           72.20  0.002105    0.11     72.31   
    77. D(C   4,C   1,C   0,C   7)     32.39  0.003363   -0.34     32.05   
    78. D(H   9,C   1,C   0,C   7)    -85.78 -0.002688    0.19    -85.59   
    79. D(H   8,C   1,C   0,H  16)     34.88 -0.003727    0.45     35.33   
    80. D(C   4,C   1,C   0,H  15)    150.49  0.004684   -0.45    150.04   
    81. D(H   9,C   1,C   0,H  16)    151.64 -0.009325    1.10    152.74   
    82. D(H   8,C   1,C   0,C   7)    157.46  0.002910   -0.46    157.00   
    83. D(H   8,C   1,C   0,H  15)    -84.44  0.004232   -0.57    -85.01   
    84. D(H   9,C   1,C   0,H  15)     32.32 -0.001367    0.08     32.40   
    85. D(C   4,C   1,C   0,H  16)    -90.19 -0.003274    0.57    -89.62   
    86. D(H  13,C   4,C   2,H   6)    -83.38 -0.008959    1.16    -82.22   
    87. D(C   2,C   4,C   1,H   9)     47.74  0.006757   -0.87     46.86   
    88. D(H  14,C   4,C   2,H   6)     36.05 -0.004925    0.68     36.73   
    89. D(H  13,C   4,C   1,H   8)     56.28 -0.010118    1.28     57.56   
    90. D(H  14,C   4,C   2,H   5)    151.23 -0.004962    0.64    151.87   
    91. D(H  14,C   4,C   1,H   9)    167.18  0.002212   -0.34    166.85   
    92. D(C   2,C   4,C   1,H   8)    179.81 -0.001651    0.33    180.14   
    93. D(H  13,C   4,C   2,H   5)     31.80 -0.008997    1.13     32.92   
    94. D(H  13,C   4,C   2,C  10)    156.06 -0.004763    0.68    156.74   
    95. D(C   1,C   4,C   2,H   5)    -84.06 -0.006923    0.91    -83.15   
    96. D(H  14,C   4,C   2,C  10)    -84.51 -0.000728    0.20    -84.31   
    97. D(C   1,C   4,C   2,H   6)    160.77 -0.006886    0.94    161.71   
    98. D(H  14,C   4,C   1,H   8)    -60.74 -0.006197    0.86    -59.88   
    99. D(C   2,C   4,C   1,C   0)    -49.54 -0.001678    0.32    -49.22   
   100. D(H  13,C   4,C   1,H   9)    -75.79 -0.001710    0.07    -75.72   
   101. D(H  14,C   4,C   1,C   0)     69.91 -0.006224    0.86     70.77   
   102. D(H  13,C   4,C   1,C   0)   -173.06 -0.010145    1.27   -171.80   
   103. D(C   1,C   4,C   2,C  10)     40.20 -0.002689    0.47     40.67   
   104. D(C  10,C   7,C   0,H  15)    -78.93 -0.006087    0.77    -78.16   
   105. D(C  10,C   7,C   0,C   1)     21.97 -0.001104    0.06     22.04   
   106. D(H  11,C   7,C   0,C   1)    -98.08  0.001274   -0.28    -98.35   
   107. D(C  10,C   7,C   0,H  16)    149.48  0.002929   -0.43    149.05   
   108. D(H  11,C   7,C   0,H  15)    161.02 -0.003709    0.43    161.45   
   109. D(H  11,C   7,C   0,H  16)     29.43  0.005307   -0.77     28.65   
   110. D(H  12,C   7,C   0,C   1)    145.96  0.005223   -0.68    145.28   
   111. D(H  12,C   7,C   0,H  15)     45.06  0.000241    0.03     45.09   
   112. D(H  12,C   7,C   0,H  16)    -86.54  0.009256   -1.18    -87.71   
   113. D(O  19,H   9,C   1,C   0)     -0.55  0.005971   -0.71     -1.26   
   114. D(O  19,H   9,C   1,C   4)    -99.60 -0.014250    1.72    -97.88   
   115. D(O  19,H   9,C   1,H   8)    126.28 -0.002493    0.26    126.54   
   116. D(H   3,C  10,C   2,C   4)    -85.83  0.000336    0.07    -85.76   
   117. D(Br 17,C  10,C   7,H  11)    -67.25 -0.002740    0.25    -67.00   
   118. D(H   3,C  10,C   2,H   6)    148.48 -0.002735    0.31    148.79   
   119. D(C   7,C  10,C   2,C   4)     42.81 -0.007663    1.17     43.98   
   120. D(H   3,C  10,C   7,C   0)     55.18 -0.002120    0.17     55.35   
   121. D(C   7,C  10,C   2,H   6)    -82.87 -0.010734    1.41    -81.47   
   122. D(Br 17,C  10,C   2,C   4)    161.12 -0.002289    0.41    161.52   
   123. D(Br 17,C  10,C   2,H   5)    -78.42 -0.004778    0.62    -77.81   
   124. D(Br 17,C  10,C   2,H   6)     35.43 -0.005360    0.65     36.07   
   125. D(C   2,C  10,H   3,O  19)    120.15 -0.003553    0.41    120.56   
   126. D(C   7,C  10,H   3,O  19)    -21.16  0.001624   -0.49    -21.66   
   127. D(Br 17,C  10,H   3,O  19)   -130.66  0.000865   -0.17   -130.83   
   128. D(C   2,C  10,C   7,C   0)    -69.30  0.007375   -1.14    -70.44   
   129. D(C   2,C  10,C   7,H  11)     52.81  0.004433   -0.68     52.12   
   130. D(C   7,C  10,C   2,H   5)    163.28 -0.010152    1.38    164.65   
   131. D(C   2,C  10,C   7,H  12)    168.41  0.008944   -1.17    167.25   
   132. D(H   3,C  10,C   7,H  11)    177.29 -0.005062    0.62    177.92   
   133. D(H   3,C  10,C   7,H  12)    -67.10 -0.000551    0.14    -66.96   
   134. D(H   3,C  10,C   2,H   5)     34.63 -0.002153    0.28     34.91   
   135. D(Br 17,C  10,C   7,C   0)    170.64  0.000202   -0.21    170.44   
   136. D(Br 17,C  10,C   7,H  12)     48.35  0.001771   -0.23     48.12   
   137. D(O  19,H  15,C   0,C   1)    -40.78 -0.001885    0.38    -40.40   
   138. D(O  19,H  15,C   0,C   7)     50.68  0.010456   -1.14     49.54   
   139. D(O  19,H  15,C   0,H  16)   -172.32  0.003654   -0.30   -172.62   
   140. D(C  18,O  19,H   3,C  10)    -67.39 -0.002300    0.22    -67.17   
   141. D(H   9,O  19,H   3,C  10)    -86.44  0.000742   -0.37    -86.81   
   142. D(H  15,O  19,C  18,H  20)    133.28 -0.000750   -0.06    133.22   
   143. D(C  18,O  19,H   9,C   1)   -114.12  0.001647   -0.07   -114.19   
   144. D(H   3,O  19,H   9,C   1)     56.39  0.004537   -0.51     55.88   
   145. D(H   3,O  19,C  18,H  22)     71.57  0.000818   -0.14     71.43   
   146. D(C  18,O  19,H  15,C   0)    133.92  0.003475   -0.45    133.47   
   147. D(H   3,O  19,H  15,C   0)    -16.39 -0.003273    0.32    -16.07   
   148. D(H   9,O  19,H  15,C   0)     41.15  0.005147   -0.59     40.56   
   149. D(H   3,O  19,C  18,H  20)   -168.37  0.000854   -0.14   -168.51   
   150. D(H  15,O  19,H   9,C   1)     -8.24 -0.004318    0.67     -7.56   
   151. D(H   3,O  19,C  18,H  21)    -48.33  0.000872   -0.14    -48.48   
   152. D(H   9,O  19,C  18,H  20)   -153.01 -0.000053    0.19   -152.82   
   153. D(H   9,O  19,C  18,H  21)    -32.98 -0.000035    0.19    -32.79   
   154. D(H  15,O  19,H   3,C  10)      3.38 -0.007295    0.87      4.25   
   155. D(H   9,O  19,C  18,H  22)     86.92 -0.000089    0.19     87.11   
   156. D(H  15,O  19,C  18,H  21)   -106.69 -0.000732   -0.06   -106.75   
   157. D(H  15,O  19,C  18,H  22)     13.21 -0.000786   -0.05     13.16   
    ----------------------------------------------------------------------------

         *************************************************************
         *                GEOMETRY OPTIMIZATION CYCLE   2            *
         *************************************************************
      -----------------------------------------------------------      
     |                   =====================                   |     
     |                           x T B                           |     
     |                   =====================                   |     
     |                         S. Grimme                         |     
     |          Mulliken Center for Theoretical Chemistry        |     
     |                    University of Bonn                     |     
      -----------------------------------------------------------      

   * xtb version 6.4.0 (d4b70c2) compiled by 'ehlert@majestix' on 2021-02-01

   xtb is free software: you can redistribute it and/or modify it under
   the terms of the GNU Lesser General Public License as published by
   the Free Software Foundation, either version 3 of the License, or
   (at your option) any later version.
   
   xtb is distributed in the hope that it will be useful,
   but WITHOUT ANY WARRANTY; without even the implied warranty of
   MERCHANTABILITY or FITNESS FOR A PARTICULAR PURPOSE.  See the
   GNU Lesser General Public License for more details.
   
   Cite this work as:
   * C. Bannwarth, E. Caldeweyher, S. Ehlert, A. Hansen, P. Pracht,
     J. Seibert, S. Spicher, S. Grimme, WIREs Comput. Mol. Sci., 2020,
     e01493. DOI: 10.1002/wcms.1493
   
   for GFN2-xTB:
   * C. Bannwarth, S. Ehlert and S. Grimme., J. Chem. Theory Comput., 2019,
     15, 1652-1671. DOI: 10.1021/acs.jctc.8b01176
   for GFN1-xTB:
   * S. Grimme, C. Bannwarth, P. Shushkov, J. Chem. Theory Comput., 2017,
     13, 1989-2009. DOI: 10.1021/acs.jctc.7b00118
   for GFN0-xTB:
   * P. Pracht, E. Caldeweyher, S. Ehlert, S. Grimme, ChemRxiv, 2019, preprint.
     DOI: 10.26434/chemrxiv.8326202.v1
   for GFN-FF:
   * S. Spicher and S. Grimme, Angew. Chem. Int. Ed., 2020, 59, 15665-15673.
     DOI: 10.1002/anie.202004239
   
   for DFT-D4:
   * E. Caldeweyher, C. Bannwarth and S. Grimme, J. Chem. Phys., 2017,
     147, 034112. DOI: 10.1063/1.4993215
   * E. Caldeweyher, S. Ehlert, A. Hansen, H. Neugebauer, S. Spicher,
     C. Bannwarth and S. Grimme, J. Chem. Phys., 2019, 150, 154122.
     DOI: 10.1063/1.5090222
   * E. Caldeweyher, J.-M. Mewes, S. Ehlert and S. Grimme, Phys. Chem. Chem. Phys.
     2020, 22, 8499-8512. DOI: 10.1039/D0CP00502A
   
   for sTDA-xTB:
   * S. Grimme and C. Bannwarth, J. Chem. Phys., 2016, 145, 054103.
     DOI: 10.1063/1.4959605
   
   in the mass-spec context:
   * V. Asgeirsson, C. Bauer and S. Grimme, Chem. Sci., 2017, 8, 4879.
     DOI: 10.1039/c7sc00601b
   * J. Koopman and S. Grimme, ACS Omega 2019, 4, 12, 15120-15133.
     DOI: 10.1021/acsomega.9b02011
   
   for metadynamics refer to:
   * S. Grimme, J. Chem. Theory Comput., 2019, 155, 2847-2862
     DOI: 10.1021/acs.jctc.9b00143
   
   with help from (in alphabetical order)
   P. Atkinson, C. Bannwarth, F. Bohle, G. Brandenburg, E. Caldeweyher
   M. Checinski, S. Dohm, S. Ehlert, S. Ehrlich, I. Gerasimov, J. Koopman
   C. Lavinge, S. Lehtola, F. März, M. Müller, F. Musil, H. Neugebauer
   J. Pisarek, P. Pracht, J. Seibert, P. Shushkov, S. Spicher, M. Stahn
   T. Strunk, J. Stückrath, T. Rose, and J. Unsleber
   
 * started run on 2021/11/09 at 17:23:29.274     

           -------------------------------------------------
          |                Calculation Setup                |
           -------------------------------------------------

          program call               : /opt/orca/otool_xtb scants+numfreq_XTB.xyz --grad -c -1 -u 0 -P 2 --namespace scants+numfreq --gbsa methanol
          calculation namespace      : scants+numfreq
          coordinate file            : scants+numfreq_XTB.xyz
          omp threads                :                     2
          number of atoms            :                    23
          number of electrons        :                    56
          charge                     :                    -1
          spin                       :                   0.0
          first test random number   :      0.94643724032080

   ID    Z sym.   atoms
    1    6 C      1-3, 5, 8, 11, 19
    2    1 H      4, 6, 7, 9, 10, 12-17, 21-23
    3   35 Br     18
    4    8 O      20

molecular fragmentation (1/2 indicates fragments):
11111111111111111122222
# atoms in fragment 1/2:    18     5
 fragment masses (1/2) :      163.06       31.03
CMA distance (Bohr)    :   9.652
constraining FC (au)   :  0.0500
########################################################################
[WARNING] Please study the warnings concerning your input carefully
-1- prog_main_parseArguments: Process number higher than OMP_NUM_THREADS, I hope you know what you are doing.
########################################################################

           -------------------------------------------------
          |                 G F N 2 - x T B                 |
           -------------------------------------------------

        Reference                      10.1021/acs.jctc.8b01176
      * Hamiltonian:
        H0-scaling (s, p, d)           1.850000    2.230000    2.230000
        zeta-weighting                 0.500000
      * Dispersion:
        s8                             2.700000
        a1                             0.520000
        a2                             5.000000
        s9                             5.000000
      * Repulsion:
        kExp                           1.500000    1.000000
        rExp                           1.000000
      * Coulomb:
        alpha                          2.000000
        third order                    shell-resolved
        anisotropic                    true
        a3                             3.000000
        a5                             4.000000
        cn-shift                       1.200000
        cn-exp                         4.000000
        max-rad                        5.000000

      * Solvation model:               GBSA
        Solvent                        methanol
        Parameter file                 internal GFN2-xTB/GBSA
        Dielectric constant                3.2700E+01
        Reference state                gsolv [1 M gas/solution]
        Free energy shift                  3.3569E-03 Eh       2.1065E+00 kcal/mol
        Temperature                        2.9815E+02 K
        Density                            7.9200E-01 kg/L
        Solvent mass                       3.2040E+01 g/mol
        Interaction kernel             Still
        Born radius scaling (c1)           1.6087E+00
        Born radii integrator          GBOBC
        Born offset                        5.6550E-04 a0       1.0686E-03 AA
        H-bond correction              true
        Ion screening                  false
        Surface tension                    1.0000E-05 Eh       1.5569E+01 dyn/cm
        Grid points                               230 per atom

          ...................................................
          :                      SETUP                      :
          :.................................................:
          :  # basis functions                  56          :
          :  # atomic orbitals                  55          :
          :  # shells                           33          :
          :  # electrons                        56          :
          :  max. iterations                   250          :
          :  Hamiltonian                  GFN2-xTB          :
          :  restarted?                      false          :
          :  GBSA solvation                   true          :
          :  PC potential                    false          :
          :  electronic temp.          300.0000000     K    :
          :  accuracy                    1.0000000          :
          :  -> integral cutoff          0.2500000E+02      :
          :  -> integral neglect         0.1000000E-07      :
          :  -> SCF convergence          0.1000000E-05 Eh   :
          :  -> wf. convergence          0.1000000E-03 e    :
          :  Broyden damping             0.4000000          :
          ...................................................

 iter      E             dE          RMSdq      gap      omega  full diag
   1    -30.1222901 -0.301223E+02  0.612E+00    0.25       0.0  T
   2    -29.7578647  0.364425E+00  0.650E+00    3.25       1.0  T
   3    -30.3205530 -0.562688E+00  0.371E+00    0.09       1.0  T
   4    -30.0934589  0.227094E+00  0.483E+00    2.13       1.0  T
   5    -30.2181648 -0.124706E+00  0.397E+00    0.58       1.0  T
   6    -30.3296289 -0.111464E+00  0.326E+00    0.06       1.0  T
   7    -30.2241351  0.105494E+00  0.374E+00    0.17       1.0  T
   8    -30.2481142 -0.239791E-01  0.370E+00    0.27       1.0  T
   9    -30.1759678  0.721464E-01  0.405E+00    0.34       1.0  T
  10    -30.3323452 -0.156377E+00  0.326E+00    0.07       1.0  T
  11    -30.5311539 -0.198809E+00  0.869E-01    0.03       1.0  T
  12    -30.3100992  0.221055E+00  0.327E+00    0.17       1.0  T
  13    -30.3581810 -0.480818E-01  0.276E+00    0.00       1.0  T
  14    -30.5437540 -0.185573E+00  0.488E-01    0.02       1.0  T
  15    -30.5484025 -0.464851E-02  0.249E-01    0.02       1.0  T
  16    -30.5484133 -0.108584E-04  0.244E-01    0.02       1.0  T
  17    -30.5496756 -0.126229E-02  0.858E-02    0.02       1.0  T
  18    -30.5497102 -0.345297E-04  0.739E-02    0.02       1.0  T
  19    -30.5497681 -0.579099E-04  0.604E-02    0.02       1.0  T
  20    -30.5497458  0.222658E-04  0.686E-02    0.02       1.0  T
  21    -30.5498500 -0.104159E-03  0.633E-03    0.02       3.3  T
  22    -30.5498383  0.117134E-04  0.240E-02    0.02       1.0  T
  23    -30.5498508 -0.125458E-04  0.325E-03    0.02       6.4  T
  24    -30.5498508  0.204540E-07  0.305E-03    0.02       6.8  T
  25    -30.5498509 -0.169276E-06  0.178E-03    0.02      11.7  T
  26    -30.5498510 -0.776769E-07  0.591E-04    0.02      35.3  T
  27    -30.5498510 -0.664528E-08  0.302E-04    0.02      69.1  T

   *** convergence criteria satisfied after 27 iterations ***

         #    Occupation            Energy/Eh            Energy/eV
      -------------------------------------------------------------
         1        2.0000           -0.8323714             -22.6500
       ...           ...                  ...                  ...
        22        2.0000           -0.4235050             -11.5242
        23        2.0000           -0.4196166             -11.4183
        24        2.0000           -0.4036023             -10.9826
        25        2.0000           -0.4001762             -10.8893
        26        1.9280           -0.3144314              -8.5561
        27        1.8955           -0.3140612              -8.5460
        28        1.3001           -0.3118960              -8.4871 (HOMO)
        29        0.8764           -0.3110716              -8.4647 (LUMO)
        30                         -0.2280931              -6.2067
        31                         -0.1279238              -3.4810
        32                         -0.0777803              -2.1165
        33                         -0.0040034              -0.1089
       ...                                ...                  ...
        55                          0.3354545               9.1282
      -------------------------------------------------------------
                  HL-Gap            0.0008244 Eh            0.0224 eV
             Fermi-level           -0.3113077 Eh           -8.4711 eV

 SCC (total)                   0 d,  0 h,  0 min,  0.045 sec
 SCC setup                      ...        0 min,  0.001 sec (  2.381%)
 Dispersion                     ...        0 min,  0.000 sec (  0.553%)
 classical contributions        ...        0 min,  0.000 sec (  0.102%)
 integral evaluation            ...        0 min,  0.005 sec ( 11.470%)
 iterations                     ...        0 min,  0.028 sec ( 63.151%)
 molecular gradient             ...        0 min,  0.010 sec ( 21.875%)
 printout                       ...        0 min,  0.000 sec (  0.338%)

         :::::::::::::::::::::::::::::::::::::::::::::::::::::
         ::                     SUMMARY                     ::
         :::::::::::::::::::::::::::::::::::::::::::::::::::::
         :: total energy             -30.271356325282 Eh    ::
         :: total w/o Gsasa/hb       -30.257895303526 Eh    ::
         :: gradient norm              0.152869293869 Eh/a0 ::
         :: HOMO-LUMO gap              0.022432323093 eV    ::
         ::.................................................::
         :: SCC energy               -30.549851033528 Eh    ::
         :: -> isotropic ES            0.216310157178 Eh    ::
         :: -> anisotropic ES          0.002327059975 Eh    ::
         :: -> anisotropic XC          0.005361459429 Eh    ::
         :: -> dispersion             -0.014645451275 Eh    ::
         :: -> Gsolv                  -0.114812098298 Eh    ::
         ::    -> Gborn               -0.101351076541 Eh    ::
         ::    -> Gsasa               -0.014994843665 Eh    ::
         ::    -> Ghb                 -0.001823107615 Eh    ::
         ::    -> Gshift               0.003356929523 Eh    ::
         :: repulsion energy           0.278290096416 Eh    ::
         :: add. restraining           0.000000000000 Eh    ::
         :: total charge              -1.000000000000 e     ::
         :::::::::::::::::::::::::::::::::::::::::::::::::::::

           -------------------------------------------------
          |                Property Printout                |
           -------------------------------------------------

    * Orbital Energies and Occupations

         #    Occupation            Energy/Eh            Energy/eV
      -------------------------------------------------------------
         1        2.0000           -0.8323714             -22.6500
       ...           ...                  ...                  ...
        16        2.0000           -0.4716162             -12.8333
        17        2.0000           -0.4648565             -12.6494
        18        2.0000           -0.4562478             -12.4151
        19        2.0000           -0.4510653             -12.2741
        20        2.0000           -0.4375464             -11.9062
        21        2.0000           -0.4251638             -11.5693
        22        2.0000           -0.4235050             -11.5242
        23        2.0000           -0.4196166             -11.4183
        24        2.0000           -0.4036023             -10.9826
        25        2.0000           -0.4001762             -10.8893
        26        1.9280           -0.3144314              -8.5561
        27        1.8955           -0.3140612              -8.5460
        28        1.3001           -0.3118960              -8.4871 (HOMO)
        29        0.8764           -0.3110716              -8.4647 (LUMO)
        30                         -0.2280931              -6.2067
        31                         -0.1279238              -3.4810
        32                         -0.0777803              -2.1165
        33                         -0.0040034              -0.1089
        34                          0.0268196               0.7298
        35                          0.0413949               1.1264
        36                          0.0488856               1.3302
        37                          0.0611688               1.6645
        38                          0.0796017               2.1661
        39                          0.1070980               2.9143
       ...                                ...                  ...
        55                          0.3354545               9.1282
      -------------------------------------------------------------
                  HL-Gap            0.0008244 Eh            0.0224 eV
             Fermi-level           -0.3113077 Eh           -8.4711 eV

     #   Z          covCN         q      C6AA      α(0)
     1   6 C        2.823    -0.129    31.285     9.165
     2   6 C        2.825    -0.109    30.751     9.087
     3   6 C        3.779    -0.062    21.722     6.640
     4   1 H        0.925     0.026     2.644     2.543
     5   6 C        3.766    -0.050    21.503     6.609
     6   1 H        0.924     0.038     2.474     2.460
     7   1 H        0.924     0.060     2.197     2.318
     8   6 C        3.796    -0.036    21.217     6.559
     9   1 H        0.922     0.016     2.794     2.614
    10   1 H        0.925     0.007     2.931     2.677
    11   6 C        3.681     0.042    20.076     6.417
    12   1 H        0.924     0.058     2.228     2.334
    13   1 H        0.916     0.040     2.451     2.449
    14   1 H        0.920     0.070     2.091     2.261
    15   1 H        0.924     0.060     2.200     2.319
    16   1 H        0.927    -0.006     3.156     2.778
    17   1 H        0.922     0.017     2.772     2.604
    18  35 Br       1.025    -0.220   191.165    22.293
    19   6 C        3.585     0.056    20.288     6.533
    20   8 O        0.808    -0.833    32.641     7.658
    21   1 H        0.926    -0.014     3.308     2.844
    22   1 H        0.926    -0.017     3.361     2.867
    23   1 H        0.926    -0.016     3.345     2.860

 Mol. C6AA /au·bohr⁶  :       5833.202633
 Mol. C8AA /au·bohr⁸  :     158118.383547
 Mol. α(0) /au        :        116.889365


Wiberg/Mayer (AO) data.
largest (>0.10) Wiberg bond orders for each atom

 ---------------------------------------------------------------------------
     #   Z sym  total        # sym  WBO       # sym  WBO       # sym  WBO
 ---------------------------------------------------------------------------
     1   6 C    3.094 --     8 C    1.068    16 H    0.987    17 H    0.978
     2   6 C    3.094 --     5 C    1.076    10 H    0.982     9 H    0.978
     3   6 C    3.969 --     7 H    0.984     6 H    0.984     5 C    0.977
                            11 C    0.969
     4   1 H    0.999 --    11 C    0.986
     5   6 C    3.970 --     2 C    1.076     3 C    0.977    15 H    0.969
                            14 H    0.924
     6   1 H    0.997 --     3 C    0.984
     7   1 H    0.996 --     3 C    0.984
     8   6 C    3.970 --     1 C    1.068    12 H    0.984    13 H    0.946
                            11 C    0.930
     9   1 H    0.994 --     2 C    0.978
    10   1 H    0.995 --     2 C    0.982
    11   6 C    3.867 --     4 H    0.986     3 C    0.969    18 Br   0.945
                             8 C    0.930
    12   1 H    0.997 --     8 C    0.984
    13   1 H    0.961 --     8 C    0.946
    14   1 H    0.942 --     5 C    0.924
    15   1 H    0.984 --     5 C    0.969
    16   1 H    0.996 --     1 C    0.987
    17   1 H    0.996 --     1 C    0.978
    18  35 Br   1.012 --    11 C    0.945
    19   6 C    3.992 --    20 O    1.034    22 H    0.987    23 H    0.986
                            21 H    0.986
    20   8 O    1.060 --    19 C    1.034
[...]
The predicted energy change is          ....    -0.003947945
Previously predicted energy change      ....    -0.009394918
Actually observed energy change         ....    -0.007304525
Ratio of predicted to observed change   ....     0.777497507
New trust radius                        ....     0.700000000

                                .--------------------.
          ----------------------|Geometry convergence|-------------------------
          Item                value                   Tolerance       Converged
          ---------------------------------------------------------------------
          Energy change      -0.0073045251            0.0000050000      NO
          RMS gradient        0.0053459280            0.0001000000      NO
          MAX gradient        0.0418611505            0.0003000000      NO
          RMS step            0.0307044124            0.0020000000      NO
          MAX step            0.1895597605            0.0040000000      NO
          ........................................................
          Max(Bonds)      0.0602      Max(Angles)    2.92
          Max(Dihed)       10.86      Max(Improp)    0.00
          ---------------------------------------------------------------------

The optimization has not yet converged - more geometry cycles are needed


    ---------------------------------------------------------------------------
                         Redundant Internal Coordinates
                            (Angstroem and degrees)

        Definition                    Value    dE/dq     Step     New-Value
    ----------------------------------------------------------------------------
     1. B(C   1,C   0)                4.0000 -0.025983 -0.0160    3.9840 C 
     2. B(H   3,C   0)                2.6452  0.012016  0.0167    2.6620   
     3. B(C   4,C   2)                1.4903 -0.013074  0.0128    1.5031   
     4. B(C   4,C   1)                1.3170  0.014378  0.0124    1.3294   
     5. B(H   5,C   2)                1.0976  0.003028 -0.0145    1.0831   
     6. B(H   6,C   2)                1.0945  0.001736 -0.0093    1.0852   
     7. B(C   7,C   0)                1.5188  0.001602  0.0146    1.5334   
     8. B(C   7,H   3)                2.1506  0.001088  0.0133    2.1640   
     9. B(H   8,C   1)                1.0753 -0.001187  0.0036    1.0789   
    10. B(H   9,C   1)                1.0819  0.002027 -0.0103    1.0716   
    11. B(C  10,C   2)                1.5452  0.003023  0.0023    1.5475   
    12. B(C  10,H   3)                1.0984 -0.003261  0.0112    1.1097   
    13. B(C  10,C   7)                1.5370  0.006787 -0.0078    1.5292   
    14. B(H  11,C   7)                1.0913  0.000326 -0.0013    1.0900   
    15. B(H  12,C   7)                1.1029  0.004331 -0.0254    1.0775   
    16. B(H  13,C   4)                1.0889  0.004193 -0.0201    1.0688   
    17. B(H  14,C   4)                2.5438  0.006466  0.0602    2.6040   
    18. B(H  15,C   0)                1.0971  0.004077 -0.0210    1.0761   
    19. B(H  16,C   0)                1.0892  0.002034 -0.0069    1.0823   
    20. B(Br 17,H  12)                4.8735 -0.001556  0.0054    4.8789   
    21. B(Br 17,H   3)                4.5222  0.000816 -0.0335    4.4887   
    22. B(Br 17,C   7)                5.5256  0.001458 -0.0235    5.5020   
    23. B(Br 17,C  10)                5.1799 -0.000598 -0.0239    5.1560   
    24. B(C  18,Br 17)                4.4649 -0.000541  0.0398    4.5047   
    25. B(O  19,C  10)                1.4212 -0.001986  0.0167    1.4379   
    26. B(O  19,C  18)                1.4068  0.002025 -0.0060    1.4008   
    27. B(O  19,Br 17)                4.8390 -0.000164  0.0093    4.8483   
    28. B(H  20,C  18)                1.0910  0.001298 -0.0065    1.0845   
    29. B(H  21,C  18)                1.0998  0.001825 -0.0093    1.0905   
    30. B(H  22,C  18)                1.0941 -0.000967  0.0063    1.1004   
    31. B(H  22,Br 17)                3.6257  0.000171  0.0325    3.6582   
    32. A(H   3,C   0,C   7)           54.39 -0.003043   -0.01     54.38   
    33. A(H   3,C   0,H  15)           65.78  0.000492    2.28     68.06   
    34. A(C   7,C   0,H  16)          110.90  0.002298   -2.92    107.98   
    35. A(C   7,C   0,H  15)          109.23 -0.002137    1.60    110.83   
    36. A(H   3,C   0,H  16)          154.95 -0.000519    0.43    155.38   
    37. A(H  15,C   0,H  16)          107.64 -0.000544    2.16    109.79   
    38. A(H   8,C   1,H   9)          115.24 -0.001793    2.68    117.92   
    39. A(C   4,C   1,H   8)          122.29  0.000037   -0.56    121.72   
    40. A(C   4,C   1,H   9)          122.47  0.001756   -2.15    120.32   
    41. A(C   4,C   2,H   6)          110.53  0.012130   -0.40    110.13   
    42. A(C   4,C   2,C  10)          113.10 -0.024235    1.79    114.89   
    43. A(C   4,C   2,H   5)          109.93  0.002205   -1.66    108.27   
    44. A(H   5,C   2,C  10)          107.28  0.017200   -0.30    106.98   
    45. A(H   5,C   2,H   6)          107.93 -0.004305    1.19    109.12   
    46. A(H   6,C   2,C  10)          107.88 -0.002283   -0.59    107.29   
    47. A(C   0,H   3,C   7)           35.04 -0.001325    0.13     35.17   
    48. A(C   7,H   3,C  10)           42.75  0.002443   -0.87     41.88   
    49. A(C   0,H   3,C  10)           73.56  0.001299   -0.89     72.67   
    50. A(C   1,C   4,C   2)          124.81  0.013811   -1.90    122.91   
    51. A(H  13,C   4,H  14)           59.07  0.012905    2.14     61.21   
    52. A(C   2,C   4,H  14)           95.69 -0.042017    0.56     96.25   
    53. A(C   1,C   4,H  14)          112.52  0.025115   -1.32    111.20   
    54. A(C   2,C   4,H  13)          115.22 -0.008655    1.84    117.06   
    55. A(C   1,C   4,H  13)          119.97 -0.005147    0.03    119.99   
    56. A(C   0,C   7,H  12)          108.71 -0.001218    0.59    109.30   
    57. A(C   0,C   7,Br 17)           95.36  0.001910    0.21     95.58   
    58. A(H   3,C   7,H  12)           99.31 -0.000609    0.57     99.88   
    59. A(C  10,C   7,H  11)          109.28 -0.000056   -0.15    109.13   
    60. A(H  12,C   7,Br 17)           48.99 -0.000421    0.89     49.89   
    61. A(H  11,C   7,Br 17)          150.38 -0.000211    1.16    151.53   
    62. A(C   0,C   7,H   3)           90.57  0.004368   -0.13     90.45   
    63. A(H   3,C   7,Br 17)           51.77 -0.000059   -0.22     51.55   
    64. A(H   3,C   7,C  10)           29.02 -0.000702   -0.04     28.98   
    65. A(C  10,C   7,Br 17)           69.09 -0.000494   -0.07     69.02   
    66. A(C  10,C   7,H  12)          105.97 -0.000851    0.57    106.54   
    67. A(H  11,C   7,H  12)          107.53  0.000396    0.43    107.96   
    68. A(C   0,C   7,H  11)          111.17 -0.002268   -0.90    110.27   
    69. A(C   0,C   7,C  10)          113.88  0.003896   -0.42    113.46   
    70. A(H   3,C   7,H  11)          136.82 -0.000679   -0.39    136.43   
    71. A(C   2,C  10,H   3)          109.84  0.002391   -0.46    109.39   
    72. A(C   2,C  10,C   7)          113.88 -0.001055   -0.05    113.83   
    73. A(H   3,C  10,O  19)          108.44  0.000852    0.57    109.01   
    74. A(C   7,C  10,O  19)          106.16 -0.000008   -0.17    105.98   
    75. A(H   3,C  10,C   7)          108.23 -0.001740    0.91    109.14   
    76. A(C   2,C  10,Br 17)          149.65  0.001500   -0.13    149.51   
    77. A(C   2,C  10,O  19)          110.10 -0.000459   -0.75    109.36   
    78. A(H   3,C  10,Br 17)           48.18 -0.000166   -0.27     47.91   
    79. A(C   7,C  10,Br 17)           94.82 -0.000144    0.09     94.91   
    80. A(Br 17,C  10,O  19)           68.34  0.000078    1.35     69.69   
    81. A(C  10,Br 17,O  19)           15.84 -0.000196    0.30     16.14   
    82. A(C  18,Br 17,O  19)           16.78  0.000242   -0.08     16.69   
    83. A(C  10,Br 17,C  18)           27.55  0.000049    0.08     27.63   
    84. A(C   7,Br 17,C  10)           16.09  0.000637   -0.02     16.07   
    85. A(C   7,Br 17,O  19)           25.29  0.000357    0.17     25.47   
    86. A(C   7,Br 17,C  18)           41.04  0.000679    0.01     41.06   
    87. A(O  19,C  18,H  22)          111.72 -0.000175   -0.73    110.99   
    88. A(H  20,C  18,H  22)          108.05 -0.000715    2.01    110.06   
    89. A(H  21,C  18,H  22)          109.27  0.000480   -1.03    108.24   
    90. A(Br 17,C  18,O  19)           96.86 -0.000188   -1.16     95.70   
    91. A(Br 17,C  18,H  20)           83.35 -0.000248    1.52     84.86   
    92. A(Br 17,C  18,H  21)          142.81  0.000544   -0.83    141.97   
    93. A(H  20,C  18,H  21)          108.68 -0.000483    1.60    110.29   
    94. A(Br 17,C  18,H  22)           35.16  0.000015   -0.16     35.00   
    95. A(O  19,C  18,H  20)          107.14  0.001213   -2.46    104.68   
    96. A(O  19,C  18,H  21)          111.85 -0.000345    0.73    112.58   
    97. A(C  10,O  19,Br 17)           95.82  0.000117   -1.65     94.17   
    98. A(Br 17,O  19,C  18)           66.36 -0.000053    1.25     67.61   
    99. A(C  10,O  19,C  18)          116.05  0.000080   -1.10    114.95   
   100. D(C  10,H   3,C   0,H  16)     84.39 -0.000072  -10.67     73.72   
   101. D(C   7,H   3,C   0,H  16)     60.27 -0.000500  -10.86     49.40   
   102. D(C   7,H   3,C   0,H  15)    140.03 -0.000317   -0.66    139.37   
   103. D(C  10,H   3,C   0,H  15)    164.15  0.000111   -0.47    163.68   
   104. D(C  10,H   3,C   0,C   7)     24.13  0.000428    0.19     24.31   
   105. D(C   1,C   4,C   2,C  10)     90.82  0.015301   -2.60     88.21   
   106. D(H  14,C   4,C   2,H   5)   -151.62  0.003805    0.03   -151.59   
   107. D(H  14,C   4,C   1,H   8)    -65.38 -0.017306   -0.60    -65.98   
   108. D(C   1,C   4,C   2,H   6)   -148.10  0.004307   -2.40   -150.51   
   109. D(H  14,C   4,C   2,H   6)     89.34  0.000187   -0.15     89.19   
   110. D(H  13,C   4,C   1,H   8)      0.84  0.008020    1.36      2.21   
   111. D(H  13,C   4,C   1,H   9)    179.93  0.008003    0.90    180.83   
   112. D(C   1,C   4,C   2,H   5)    -29.06  0.007925   -2.22    -31.28   
   113. D(H  13,C   4,C   2,H   6)     30.94  0.004909   -2.59     28.35   
   114. D(C   2,C   4,C   1,H   9)     -1.07  0.008612    0.73     -0.34   
   115. D(H  14,C   4,C   2,C  10)    -31.74  0.011181   -0.35    -32.09   
   116. D(H  13,C   4,C   2,C  10)    -90.14  0.015903   -2.79    -92.93   
   117. D(H  13,C   4,C   2,H   5)    149.98  0.008527   -2.41    147.57   
   118. D(H  14,C   4,C   1,H   9)    113.71 -0.017323   -1.07    112.65   
   119. D(C   2,C   4,C   1,H   8)    179.84  0.008629    1.19    181.04   
   120. D(H  11,C   7,C   0,H  15)    179.85 -0.000717   -0.92    178.93   
   121. D(H  12,C   7,C   0,H  16)    -56.79  0.001508   -3.10    -59.88   
   122. D(Br 17,C   7,H   3,C   0)    -96.38  0.001018   -0.36    -96.74   
   123. D(H  12,C   7,C   0,H  15)     61.68  0.000895   -1.27     60.42   
   124. D(H  11,C   7,C   0,H   3)   -141.80 -0.000832    0.95   -140.85   
   125. D(H   3,C   7,C   0,H  16)   -156.82  0.000729   -3.70   -160.52   
   126. D(Br 17,C   7,H   3,C  10)    118.90  0.000096    0.44    119.34   
   127. D(H   3,C   7,C   0,H  15)    -38.35  0.000116   -1.87    -40.22   
   128. D(C  10,C   7,C   0,H   3)    -17.84  0.000272   -0.27    -18.11   
   129. D(C  10,C   7,C   0,H  16)   -174.66  0.001000   -3.96   -178.63   
   130. D(H  11,C   7,C   0,H  16)     61.38 -0.000104   -2.75     58.63   
   131. D(Br 17,C   7,C   0,H   3)     51.64  0.000311   -0.30     51.33   
   132. D(C  10,C   7,H   3,C   0)    144.73  0.000921   -0.80    143.93   
   133. D(H  12,C   7,H   3,C   0)   -109.07  0.000505   -0.62   -109.69   
   134. D(H  11,C   7,H   3,C   0)    122.57  0.001413   -1.86    120.71   
   135. D(Br 17,C   7,C   0,H  15)     13.29  0.000427   -2.17     11.12   
   136. D(H  11,C   7,H   3,C  10)    -22.16  0.000492   -1.06    -23.22   
   137. D(C   0,C   7,H   3,C  10)   -144.73 -0.000921    0.80   -143.93   
   138. D(Br 17,C   7,C   0,H  16)   -105.18  0.001040   -4.00   -109.18   
   139. D(H  12,C   7,H   3,C  10)    106.21 -0.000417    0.18    106.39   
   140. D(C  10,C   7,C   0,H  15)    -56.19  0.000387   -2.14    -58.33   
   141. D(H  12,C   7,C   0,H   3)    100.03  0.000780    0.60    100.64   
   142. D(C   2,C  10,C   7,C   0)    -83.29 -0.000775    0.71    -82.59   
   143. D(H   3,C  10,C   2,C   4)    -53.56  0.004084   -1.95    -55.50   
   144. D(O  19,C  10,C   2,H   6)     64.52  0.003939   -2.13     62.39   
   145. D(O  19,C  10,H   3,C   0)   -134.97  0.001790   -1.17   -136.14   
   146. D(H   3,C  10,C   2,H   5)     67.83  0.003569   -3.14     64.69   
   147. D(C   2,C  10,H   3,C   0)    104.66  0.000397   -0.33    104.34   
   148. D(C   7,C  10,C   2,C   4)     68.00  0.002867   -1.14     66.86   
   149. D(C   7,C  10,C   2,H   6)    -54.56  0.004977   -1.38    -55.95   
   150. D(Br 17,C  10,C   2,H   5)     29.68  0.000863   -1.65     28.03   
   151. D(Br 17,C  10,C   2,H   6)    145.73  0.003487   -0.70    145.03   
   152. D(C   7,C  10,H   3,C   0)    -20.22  0.001317   -0.58    -20.81   
   153. D(H   3,C  10,C   2,H   6)   -176.13  0.006194   -2.19   -178.31   
   154. D(C   2,C  10,C   7,H   3)   -122.46 -0.001083   -0.06   -122.51   
   155. D(Br 17,C  10,H   3,C   7)    -79.87 -0.001396    0.85    -79.02   
   156. D(O  19,C  10,H   3,C   7)   -114.75  0.000473   -0.58   -115.33   
   157. D(C   7,C  10,C   2,H   5)   -170.61  0.002352   -2.33   -172.94   
   158. D(C   2,C  10,H   3,C   7)    124.89 -0.000920    0.26    125.14   
   159. D(O  19,C  10,C   2,H   5)    -51.52  0.001314   -3.08    -54.61   
   160. D(Br 17,C  10,H   3,C   0)   -100.09 -0.000079    0.26    -99.83   
   161. D(Br 17,C  10,C   2,C   4)    -91.70  0.001378   -0.46    -92.16   
   162. D(O  19,C  10,C   2,C   4)   -172.91  0.001829   -1.89   -174.80   
   163. D(Br 17,C  10,C   7,H  12)    -32.86  0.000228   -0.53    -33.40   
   164. D(C   2,C  10,C   7,H  12)    157.27 -0.000952   -0.17    157.10   
   165. D(C   2,C  10,C   7,Br 17)   -169.87 -0.001180    0.37   -169.50   
   166. D(O  19,C  10,C   7,Br 17)     68.82  0.000042    1.44     70.26   
   167. D(H   3,C  10,C   7,H  11)    164.13  0.000143   -0.85    163.29   
   168. D(H   3,C  10,C   7,H  12)    -80.28  0.000131   -0.11    -80.39   
   169. D(H   3,C  10,C   7,Br 17)    -47.41 -0.000097    0.42    -46.99   
   170. D(O  19,C  10,C   7,C   0)    155.40  0.000447    1.78    157.18   
   171. D(O  19,C  10,C   7,H   3)    116.24  0.000139    1.01    117.25   
   172. D(O  19,C  10,C   7,H  11)    -79.63  0.000282    0.17    -79.47   
   173. D(H   3,C  10,C   7,C   0)     39.16  0.000308    0.77     39.93   
   174. D(O  19,C  10,C   7,H  12)     35.96  0.000270    0.90     36.86   
   175. D(Br 17,C  10,C   7,C   0)     86.57  0.000405    0.34     86.92   
   176. D(Br 17,C  10,C   7,H   3)     47.41  0.000097   -0.42     46.99   
   177. D(C   2,C  10,C   7,H  11)     41.68 -0.000940   -0.90     40.77   
   178. D(Br 17,C  10,C   7,H  11)   -148.45  0.000240   -1.27   -149.73   
   179. D(O  19,Br 17,C  10,C   7)    105.48  0.000045   -0.24    105.24   
   180. D(C  10,Br 17,C   7,H   3)    -27.04  0.000577    0.15    -26.89   
   181. D(C  10,Br 17,C   7,H  11)     92.46 -0.000911   -0.87     91.59   
   182. D(C  10,Br 17,C   7,H  12)    136.26 -0.000246    0.17    136.44   
   183. D(C  18,Br 17,C   7,C   0)   -140.68 -0.002832    0.21   -140.47   
   184. D(C  18,Br 17,C   7,H   3)    -54.19  0.001237   -0.11    -54.30   
   185. D(C  18,Br 17,C   7,C  10)    -27.14  0.000660   -0.26    -27.41   
   186. D(C   7,Br 17,C  10,H   3)    110.23 -0.002200    1.20    111.42   
   187. D(C  18,Br 17,C   7,H  12)    109.12  0.000414   -0.09    109.03   
   188. D(O  19,Br 17,C   7,C   0)   -151.54 -0.002352   -0.12   -151.66   
   189. D(O  19,Br 17,C   7,H   3)    -65.05  0.001717   -0.44    -65.48   
   190. D(O  19,Br 17,C   7,C  10)    -38.00  0.001140   -0.59    -38.59   
   191. D(O  19,Br 17,C   7,H  11)     54.46  0.000229   -1.46     53.00   
   192. D(O  19,Br 17,C   7,H  12)     98.26  0.000894   -0.42     97.85   
   193. D(C  18,Br 17,C   7,H  11)     65.32 -0.000251   -1.14     64.18   
   194. D(C   7,Br 17,C  10,C   2)    161.44  0.001199   -0.62    160.82   
   195. D(C   7,Br 17,C  10,O  19)   -105.48 -0.000045    0.24   -105.24   
   196. D(C  18,Br 17,C  10,C   2)    -58.93  0.001711   -0.94    -59.87   
   197. D(C  18,Br 17,C  10,H   3)   -110.15 -0.001688    0.88   -109.27   
   198. D(C  18,Br 17,C  10,C   7)    139.63  0.000512   -0.32    139.31   
   199. D(C  18,Br 17,C  10,O  19)     34.14  0.000466   -0.08     34.06   
   200. D(O  19,Br 17,C  10,C   2)    -93.08  0.001245   -0.86    -93.94   
   201. D(C  10,Br 17,C   7,C   0)   -113.54 -0.003492    0.47   -113.07   
   202. D(O  19,Br 17,C  10,H   3)   -144.29 -0.002154    0.96   -143.33   
   203. D(O  19,C  18,Br 17,C   7)    -16.19  0.000740   -0.68    -16.87   
   204. D(O  19,C  18,Br 17,C  10)    -32.06  0.000504   -0.76    -32.81   
   205. D(H  20,C  18,Br 17,C   7)   -122.74 -0.000480    1.62   -121.12   
   206. D(H  20,C  18,Br 17,C  10)   -138.61 -0.000715    1.54   -137.07   
   207. D(H  20,C  18,Br 17,O  19)   -106.55 -0.001220    2.30   -104.25   
   208. D(H  21,C  18,Br 17,C   7)    124.94  0.000460   -2.66    122.28   
   209. D(H  21,C  18,Br 17,C  10)    109.07  0.000225   -2.74    106.33   
   210. D(H  21,C  18,Br 17,O  19)    141.13 -0.000280   -1.99    139.15   
   211. D(H  22,C  18,Br 17,C   7)    102.26  0.000698   -0.12    102.14   
   212. D(H  22,C  18,Br 17,C  10)     86.39  0.000463   -0.20     86.19   
   213. D(H  22,C  18,Br 17,O  19)    118.45 -0.000042    0.56    119.01   
   214. D(C  10,O  19,C  18,H  21)    -71.08 -0.000152    1.03    -70.05   
   215. D(C  18,O  19,C  10,H   3)    -39.21 -0.001466   -0.03    -39.23   
   216. D(C  18,O  19,C  10,C   7)   -155.30  0.000144   -1.27   -156.57   
   217. D(C  18,O  19,C  10,Br 17)    -66.50  0.000011   -0.71    -67.20   
   218. D(Br 17,O  19,C  10,C   2)    147.50  0.001696    0.02    147.51   
   219. D(Br 17,O  19,C  10,H   3)     27.29 -0.001476    0.68     27.97   
   220. D(Br 17,O  19,C  10,C   7)    -88.80  0.000134   -0.56    -89.37   
   221. D(C  10,O  19,Br 17,C   7)     38.70  0.001154   -0.31     38.39   
   222. D(C  10,O  19,Br 17,C  18)   -115.93 -0.000042    0.63   -115.30   
   223. D(C  18,O  19,Br 17,C   7)    154.63  0.001196   -0.94    153.68   
   224. D(C  18,O  19,Br 17,C  10)    115.93  0.000042   -0.63    115.30   
   225. D(C  18,O  19,C  10,C   2)     81.00  0.001707   -0.69     80.31   
   226. D(C  10,O  19,C  18,H  20)    169.92 -0.000127    0.24    170.16   
   227. D(C  10,O  19,C  18,H  22)     51.77  0.000092   -0.33     51.44   
   228. D(C  10,O  19,C  18,Br 17)     84.80  0.000075   -0.84     83.96   
   229. D(Br 17,O  19,C  18,H  20)     85.12 -0.000202    1.08     86.20   
   230. D(Br 17,O  19,C  18,H  21)   -155.88 -0.000227    1.86   -154.01   
   231. D(Br 17,O  19,C  18,H  22)    -33.03  0.000017    0.51    -32.52   
    ----------------------------------------------------------------------------




    ----------------------------------------------------------------------------
                                   ERROR !!!
       The optimization did not converge but reached the maximum 
       number of optimization cycles.
       As a subsequent Frequencies calculation has been requested
       ORCA will abort at this point of the run.
       Please restart the calculation with the lowest energy geometry and/or
       a larger maxiter for the geometry optimization.
    ----------------------------------------------------------------------------


[file orca_main/run.cpp, line 6422]: ORCA finished with an error in the geometry optimization

