23
Coordinates from ORCA-job scants+numfreq Relaxed Surface Scan Step 1
  C       2.016902     -2.076939      0.535305
  C       3.165087      1.937518     -0.670319
  C       0.981960      1.134261      0.211622
  H       0.956737     -0.448862     -1.278448
  C       2.472824      1.260464      0.228402
  H       0.567087      1.926873     -0.418373
  H       0.596833      1.248212      1.236224
  C       0.666654     -1.379433      0.666037
  H       4.237047      2.021469     -0.618464
  H       2.679303      2.438555     -1.491722
  C       0.504407     -0.219948     -0.308660
  H       0.518608     -0.987128      1.680476
  H      -0.113164     -2.124661      0.483402
  H       2.969571      0.776085      1.058767
  H       2.834965     -1.398568      0.758748
  H       2.148527     -2.460670     -0.475283
  H       2.062306     -2.908948      1.233914
  Br     -1.409026     -0.027210     -0.726556
  C       0.654517      0.786519      4.268151
  O       0.045592      0.560475      3.123986
  H       1.530085      0.093842      4.470291
  H       1.089487      1.829101      4.361381
  H      -0.013700      0.672823      5.174340
>
23
Coordinates from ORCA-job scants+numfreq Relaxed Surface Scan Step 2
  C       2.038709     -2.045476      0.508935
  C       3.172765      1.862496     -0.690448
  C       0.974358      1.147442      0.231034
  H       0.937102     -0.414679     -1.279633
  C       2.466837      1.262040      0.250954
  H       0.564917      1.944827     -0.396595
  H       0.585286      1.254938      1.254148
  C       0.678329     -1.371280      0.655426
  H       4.245485      1.935698     -0.637388
  H       2.699074      2.308321     -1.549846
  C       0.495403     -0.201035     -0.301480
  H       0.528951     -0.998416      1.677059
  H      -0.091351     -2.125032      0.464019
  H       2.951840      0.833837      1.118667
  H       2.847086     -1.353877      0.727601
  H       2.167467     -2.422280     -0.504515
  H       2.104181     -2.879202      1.203781
  Br     -1.423940     -0.013375     -0.690921
  C       0.637117      0.783280      4.280400
  O       0.033592      0.543335      3.136883
  H       1.529012      0.111706      4.483782
  H       1.048326      1.835824      4.374119
  H      -0.027937      0.654740      5.187239
>
23
Coordinates from ORCA-job scants+numfreq Relaxed Surface Scan Step 3
  C       2.058885     -2.010821      0.488341
  C       3.179209      1.788886     -0.709407
  C       0.968149      1.160053      0.244643
  H       0.917794     -0.386450     -1.281275
  C       2.462104      1.263877      0.267919
  H       0.563923      1.961252     -0.381587
  H       0.575913      1.264451      1.266288
  C       0.688126     -1.361031      0.647504
  H       4.252392      1.853994     -0.656048
  H       2.714379      2.178730     -1.600292
  C       0.486727     -0.183783     -0.296130
  H       0.537399     -1.001183      1.673564
  H      -0.071130     -2.123768      0.450148
  H       2.937425      0.890461      1.165931
  H       2.855928     -1.306010      0.706092
  H       2.187579     -2.378945     -0.528279
  H       2.143519     -2.847682      1.177365
  Br     -1.437855     -0.000695     -0.660146
  C       0.621513      0.775907      4.293420
  O       0.024402      0.528689      3.148346
  H       1.525288      0.119977      4.496312
  H       1.013290      1.835604      4.391447
  H      -0.042350      0.632318      5.199063
>
23
Coordinates from ORCA-job scants+numfreq Relaxed Surface Scan Step 4
  C       2.078042     -1.974263      0.473256
  C       3.183864      1.714964     -0.729421
  C       0.962519      1.173835      0.254593
  H       0.900047     -0.360284     -1.283136
  C       2.457819      1.268752      0.279885
  H       0.562456      1.977962     -0.370662
  H       0.567566      1.276337      1.274820
  C       0.697264     -1.348357      0.640841
  H       4.257376      1.773558     -0.676064
  H       2.726214      2.043291     -1.648399
  C       0.478841     -0.166297     -0.292085
  H       0.544500     -0.999299      1.670301
  H      -0.051464     -2.119969      0.437810
  H       2.925281      0.955037      1.204600
  H       2.863012     -1.257260      0.694886
  H       2.210447     -2.332004     -0.546572
  H       2.178450     -2.815032      1.155401
  Br     -1.450238      0.011544     -0.632629
  C       0.607166      0.763634      4.306630
  O       0.016869      0.515634      3.158477
  H       1.518782      0.118081      4.508594
  H       0.985131      1.827800      4.412397
  H      -0.057335      0.606166      5.209693
>
23
Coordinates from ORCA-job scants+numfreq Relaxed Surface Scan Step 5
  C       2.096322     -1.934884      0.465487
  C       3.186195      1.640134     -0.753033
  C       0.958605      1.188712      0.261135
  H       0.884022     -0.336597     -1.285599
  C       2.455037      1.276280      0.285089
  H       0.561015      1.995820     -0.362166
  H       0.561766      1.289900      1.280239
  C       0.705114     -1.332953      0.635473
  H       4.260083      1.693249     -0.701963
  H       2.732665      1.903777     -1.694591
  C       0.472096     -0.148252     -0.289695
  H       0.548478     -0.992375      1.667190
  H      -0.032417     -2.113533      0.425991
  H       2.918236      1.026471      1.231287
  H       2.867880     -1.207051      0.698154
  H       2.238471     -2.279244     -0.557608
  H       2.208056     -2.781190      1.139034
  Br     -1.460623      0.024951     -0.609012
  C       0.593343      0.745503      4.320818
  O       0.011077      0.502686      3.167728
  H       1.509368      0.105751      4.521946
  H       0.962034      1.811920      4.437935
  H      -0.074211      0.574756      5.219381
>
23
Coordinates from ORCA-job scants+numfreq Relaxed Surface Scan Step 6
  C       2.116794     -1.874845      0.499398
  C       3.175038      1.549481     -0.843245
  C       0.978857      1.204747      0.278167
  H       0.875458     -0.298243     -1.288646
  C       2.476448      1.295259      0.248737
  H       0.559729      2.025026     -0.313406
  H       0.615213      1.286581      1.310623
  C       0.701921     -1.318602      0.619380
  H       4.249726      1.607039     -0.830333
  H       2.693364      1.714143     -1.793298
  C       0.474305     -0.119259     -0.286761
  H       0.492495     -1.007599      1.650985
  H      -0.003196     -2.113183      0.356586
  H       2.970101      1.144144      1.200453
  H       2.851371     -1.141832      0.818748
  H       2.329093     -2.157585     -0.530370
  H       2.213052     -2.754227      1.131865
  Br     -1.460469      0.069272     -0.583809
  C       0.564185      0.706152      4.358737
  O       0.030444      0.479285      3.179372
  H       1.466064      0.057390      4.591851
  H       0.935367      1.768585      4.502132
  H      -0.142750      0.532101      5.226052
>
23
Coordinates from ORCA-job scants+numfreq Relaxed Surface Scan Step 7
  C       2.132559     -1.839854      0.489144
  C       3.175281      1.476501     -0.844957
  C       0.970593      1.217437      0.284901
  H       0.858403     -0.274861     -1.291643
  C       2.469090      1.303745      0.257895
  H       0.553839      2.041568     -0.303205
  H       0.604688      1.295288      1.316768
  C       0.709499     -1.305687      0.612077
  H       4.249983      1.532572     -0.829077
  H       2.700833      1.574739     -1.807694
  C       0.465819     -0.103359     -0.285184
  H       0.497378     -1.004702      1.646230
  H       0.014977     -2.107650      0.343500
  H       2.956720      1.218672      1.220928
  H       2.854441     -1.103402      0.828992
  H       2.355047     -2.097960     -0.544914
  H       2.237279     -2.730939      1.103702
  Br     -1.472266      0.076733     -0.562110
  C       0.559090      0.694454      4.360531
  O       0.021944      0.471865      3.182092
  H       1.466376      0.050279      4.585653
  H       0.923810      1.758478      4.509681
  H      -0.142772      0.509913      5.229910
>
23
Coordinates from ORCA-job scants+numfreq Relaxed Surface Scan Step 8
  C       2.147507     -1.804049      0.482358
  C       3.175056      1.402642     -0.846116
  C       0.963194      1.230359      0.289327
  H       0.840167     -0.253455     -1.295346
  C       2.462183      1.315731      0.262490
  H       0.546900      2.058039     -0.294557
  H       0.595799      1.304861      1.320821
  C       0.716084     -1.292279      0.604948
  H       4.249584      1.460843     -0.827395
  H       2.707946      1.426622     -1.816998
  C       0.457367     -0.087592     -0.284408
  H       0.500341     -1.001107      1.641169
  H       0.032742     -2.101363      0.329298
  H       2.945024      1.304396      1.231681
  H       2.855137     -1.067676      0.851120
  H       2.385004     -2.030833     -0.555625
  H       2.257437     -2.710153      1.073768
  Br     -1.483883      0.085253     -0.540604
  C       0.555108      0.680210      4.362326
  O       0.014061      0.464526      3.184525
  H       1.466196      0.038312      4.578684
  H       0.915858      1.744710      4.518440
  H      -0.142203      0.485834      5.233314
>
23
Coordinates from ORCA-job scants+numfreq Relaxed Surface Scan Step 9
  C       2.150091     -1.734425      0.553379
  C       3.167785      1.317303     -0.865984
  C       0.959141      1.242040      0.298390
  H       0.839526     -0.228887     -1.300984
  C       2.457100      1.346393      0.246940
  H       0.525720      2.081370     -0.256242
  H       0.609757      1.293215      1.337909
  C       0.696140     -1.276548      0.592526
  H       4.240920      1.398457     -0.854585
  H       2.704196      1.218707     -1.833625
  C       0.450540     -0.066626     -0.292309
  H       0.409002     -1.008951      1.617816
  H       0.058097     -2.102400      0.262706
  H       2.944970      1.458946      1.207347
  H       2.800542     -0.990959      1.004386
  H       2.470819     -1.907438     -0.472332
  H       2.250631     -2.660740      1.114673
  Br     -1.488073      0.109902     -0.560854
  C       0.575713      0.630904      4.327965
  O      -0.039187      0.471316      3.177583
  H       1.478302     -0.042909      4.469316
  H       0.976324      1.678997      4.497589
  H      -0.075446      0.426163      5.231608
>
23
Coordinates from ORCA-job scants+numfreq Relaxed Surface Scan Step 10
  C       2.162256     -1.704740      0.538089
  C       3.172144      1.245051     -0.848809
  C       0.950613      1.252129      0.301629
  H       0.811224     -0.208935     -1.307105
  C       2.448125      1.361402      0.249674
  H       0.515308      2.095571     -0.246169
  H       0.602373      1.300282      1.341966
  C       0.701769     -1.267267      0.581937
  H       4.244339      1.337295     -0.830167
  H       2.724298      1.062241     -1.811321
  C       0.438848     -0.052982     -0.291503
  H       0.415120     -1.013088      1.610758
  H       0.073331     -2.097623      0.245223
  H       2.926537      1.557524      1.201457
  H       2.798568     -0.969534      1.021621
  H       2.494257     -1.837437     -0.489871
  H       2.270193     -2.649102      1.067307
  Br     -1.504544      0.118018     -0.530075
  C       0.576183      0.622966      4.326861
  O      -0.037692      0.460288      3.176371
  H       1.487827     -0.039287      4.464327
  H       0.962794      1.675614      4.500829
  H      -0.071261      0.405442      5.230189
>
23
Coordinates from ORCA-job scants+numfreq Relaxed Surface Scan Step 11
  C       2.158395     -1.680362      0.531243
  C       3.181168      1.154487     -0.834411
  C       0.952984      1.246729      0.329573
  H       0.793491     -0.162291     -1.327345
  C       2.442907      1.410011      0.230697
  H       0.480946      2.114872     -0.145966
  H       0.646760      1.237032      1.385621
  C       0.688462     -1.273987      0.533115
  H       4.245820      1.313100     -0.828233
  H       2.761590      0.786134     -1.754903
  C       0.431714     -0.033305     -0.304915
  H       0.363361     -1.061075      1.559413
  H       0.088192     -2.103331      0.146140
  H       2.908900      1.792854      1.130793
  H       2.757548     -0.947801      1.064326
  H       2.533836     -1.772739     -0.485712
  H       2.266136     -2.638941      1.034449
  Br     -1.513114      0.150849     -0.527755
  C       0.587730      0.621930      4.340789
  O      -0.006469      0.427209      3.184685
  H       1.529961      0.006425      4.487482
  H       0.919035      1.692759      4.516225
  H      -0.056743      0.373273      5.237910
>
23
Coordinates from ORCA-job scants+numfreq Relaxed Surface Scan Step 12
  C       2.110816     -1.720633      0.490532
  C       3.228246      1.066954     -0.628613
  C       0.903792      1.251439      0.362220
  H       0.817123     -0.099856     -1.348804
  C       2.369178      1.540232      0.255998
  H       0.372241      2.125927     -0.033624
  H       0.625394      1.165906      1.427277
  C       0.651254     -1.279969      0.473035
  H       4.262087      1.367693     -0.612271
  H       2.952920      0.371215     -1.400880
  C       0.422968     -0.011369     -0.333927
  H       0.312510     -1.089347      1.499146
  H       0.044272     -2.089565      0.055186
  H       2.709827      2.249376      1.002285
  H       2.729691     -0.982863      0.992173
  H       2.482241     -1.872959     -0.520479
  H       2.190894     -2.659111      1.035285
  Br     -1.515514      0.164382     -0.615877
  C       0.691506      0.628655      4.270041
  O      -0.000369      0.391142      3.175918
  H       1.699763      0.110811      4.301654
  H       0.929459      1.724360      4.436869
  H       0.172313      0.301410      5.220074
>
23
Coordinates from ORCA-job scants+numfreq Relaxed Surface Scan Step 13
  C       2.133195     -1.685087      0.474868
  C       3.219749      1.008955     -0.611030
  C       0.897715      1.258292      0.362036
  H       0.782936     -0.080779     -1.356227
  C       2.366551      1.525739      0.254568
  H       0.373036      2.137458     -0.032351
  H       0.622322      1.173511      1.428086
  C       0.665325     -1.270917      0.463814
  H       4.259768      1.288703     -0.595466
  H       2.932848      0.312774     -1.377715
  C       0.409906     -0.001316     -0.332578
  H       0.326905     -1.090675      1.491972
  H       0.071166     -2.088869      0.044155
  H       2.718676      2.239945      0.990362
  H       2.739391     -0.950405      0.994136
  H       2.508018     -1.817895     -0.536961
  H       2.225472     -2.632993      1.002698
  Br     -1.535134      0.162291     -0.573865
  C       0.681959      0.630378      4.271614
  O      -0.002860      0.390569      3.173672
  H       1.694018      0.120115      4.306564
  H       0.910781      1.727429      4.442511
  H       0.160867      0.296608      5.218355
>
23
Coordinates from ORCA-job scants+numfreq Relaxed Surface Scan Step 14
  C       2.158961     -1.651528      0.457988
  C       3.205848      0.951890     -0.596172
  C       0.892053      1.266584      0.364057
  H       0.748037     -0.057999     -1.362323
  C       2.364685      1.507714      0.256838
  H       0.375045      2.150128     -0.030197
  H       0.618794      1.182133      1.430939
  C       0.683925     -1.260911      0.453235
  H       4.253420      1.203194     -0.580034
  H       2.901010      0.267145     -1.365153
  C       0.398230      0.009944     -0.329681
  H       0.345530     -1.095476      1.484006
  H       0.102849     -2.085723      0.028355
  H       2.733121      2.217524      0.988731
  H       2.756196     -0.921655      0.992065
  H       2.536402     -1.770737     -0.553753
  H       2.258971     -2.607097      0.972375
  Br     -1.553246      0.158189     -0.524283
  C       0.669660      0.635432      4.272284
  O      -0.004934      0.391313      3.169019
  H       1.686216      0.134617      4.313534
  H       0.886934      1.734226      4.446865
  H       0.144905      0.294923      5.214526
>
23
Coordinates from ORCA-job scants+numfreq Relaxed Surface Scan Step 15
  C       2.199127     -1.627205      0.411167
  C       3.188755      0.894177     -0.607249
  C       0.897354      1.282196      0.360740
  H       0.699865     -0.044937     -1.358416
  C       2.376790      1.478517      0.254898
  H       0.397007      2.166835     -0.051820
  H       0.620728      1.218039      1.427474
  C       0.721147     -1.245205      0.459578
  H       4.247070      1.097127     -0.591361
  H       2.848810      0.253083     -1.397861
  C       0.390045      0.020902     -0.313050
  H       0.419747     -1.083066      1.502305
  H       0.131517     -2.075453      0.057529
  H       2.777733      2.153192      1.002283
  H       2.811434     -0.914967      0.949185
  H       2.547270     -1.728874     -0.611924
  H       2.311029     -2.595913      0.900378
  Br     -1.568952      0.151078     -0.433090
  C       0.622649      0.648162      4.297212
  O       0.004229      0.396179      3.163692
  H       1.653083      0.180480      4.375580
  H       0.795647      1.751179      4.493451
  H       0.070527      0.278304      5.212519
>
23
Coordinates from ORCA-job scants+numfreq Relaxed Surface Scan Step 16
  C       2.230829     -1.592894      0.398874
  C       3.164684      0.839734     -0.598399
  C       0.891404      1.294758      0.361529
  H       0.662602     -0.023868     -1.360328
  C       2.375927      1.452969      0.265273
  H       0.404421      2.181073     -0.062523
  H       0.608801      1.239282      1.426856
  C       0.745867     -1.233269      0.450979
  H       4.231152      0.994687     -0.576652
  H       2.796936      0.244914     -1.411510
  C       0.380565      0.032378     -0.306804
  H       0.442590     -1.088777      1.495725
  H       0.170800     -2.070452      0.041909
  H       2.800330      2.092473      1.029997
  H       2.835597     -0.894544      0.960113
  H       2.586100     -1.677602     -0.621914
  H       2.344322     -2.572350      0.869223
  Br     -1.582957      0.140712     -0.378029
  C       0.607816      0.656238      4.292372
  O      -0.012332      0.404996      3.159878
  H       1.642649      0.196898      4.364806
  H       0.772240      1.759708      4.494023
  H       0.062268      0.276766      5.207822
>
23
Coordinates from ORCA-job scants+numfreq Relaxed Surface Scan Step 17
  C       2.260825     -1.562764      0.385628
  C       3.137784      0.784254     -0.583237
  C       0.881621      1.308922      0.360137
  H       0.632001      0.000082     -1.366050
  C       2.369726      1.433730      0.272855
  H       0.403788      2.198120     -0.067151
  H       0.598639      1.254146      1.425489
  C       0.771309     -1.216552      0.439420
  H       4.209972      0.894945     -0.553411
  H       2.751411      0.234843     -1.418776
  C       0.372000      0.046152     -0.306327
  H       0.467766     -1.082015      1.485795
  H       0.207655     -2.060624      0.028066
  H       2.812677      2.041664      1.052447
  H       2.862793     -0.884323      0.971503
  H       2.623465     -1.640691     -0.631574
  H       2.366696     -2.552833      0.840525
  Br     -1.593323      0.125427     -0.334162
  C       0.598394      0.663558      4.288893
  O      -0.018010      0.408283      3.155472
  H       1.639375      0.217750      4.360047
  H       0.748139      1.768371      4.494760
  H       0.057908      0.273388      5.202873
>
23
Coordinates from ORCA-job scants+numfreq Relaxed Surface Scan Step 18
  C       2.294012     -1.558736      0.323030
  C       3.114369      0.733455     -0.538700
  C       0.864740      1.341616      0.336971
  H       0.603767     -0.006368     -1.358079
  C       2.359760      1.407090      0.311061
  H       0.427043      2.216439     -0.157734
  H       0.532714      1.342813      1.387441
  C       0.813842     -1.185874      0.463425
  H       4.190184      0.777249     -0.475139
  H       2.721347      0.263344     -1.418095
  C       0.367412      0.055285     -0.293788
  H       0.576812     -1.021286      1.522641
  H       0.218393     -2.035800      0.113790
  H       2.807367      1.949516      1.134538
  H       2.946283     -0.931713      0.909084
  H       2.604548     -1.619200     -0.711513
  H       2.389131     -2.570312      0.736184
  Br     -1.599709      0.097863     -0.280285
  C       0.579154      0.676651      4.287611
  O      -0.022090      0.409781      3.149581
  H       1.652435      0.310846      4.341604
  H       0.644620      1.783134      4.527525
  H       0.076476      0.218038      5.192067
>
23
Coordinates from ORCA-job scants+numfreq Relaxed Surface Scan Step 19
  C       2.328671     -1.528954      0.308243
  C       3.081333      0.677423     -0.534418
  C       0.861832      1.356411      0.336552
  H       0.568472      0.016159     -1.360222
  C       2.358252      1.384837      0.316212
  H       0.435190      2.232340     -0.165145
  H       0.527944      1.363490      1.385897
  C       0.842424     -1.170946      0.449820
  H       4.158352      0.673464     -0.473677
  H       2.667633      0.268118     -1.434418
  C       0.361575      0.068952     -0.289618
  H       0.605353     -1.021781      1.511317
  H       0.258495     -2.026293      0.093883
  H       2.822865      1.885012      1.156698
  H       2.976978     -0.932050      0.927127
  H       2.653500     -1.580385     -0.720475
  H       2.412352     -2.553426      0.700090
  Br     -1.606095      0.085177     -0.225808
  C       0.562518      0.688084      4.291760
  O      -0.024404      0.415294      3.148207
  H       1.642035      0.341443      4.353516
  H       0.606238      1.794702      4.536995
  H       0.061097      0.216759      5.190684
>
23
Coordinates from ORCA-job scants+numfreq Relaxed Surface Scan Step 20
  C       2.359318     -1.499080      0.297399
  C       3.047522      0.621343     -0.521964
  C       0.855655      1.372898      0.333043
  H       0.541252      0.038457     -1.364151
  C       2.352770      1.371368      0.317633
  H       0.436616      2.249869     -0.172493
  H       0.521832      1.384274      1.382192
  C       0.868024     -1.151842      0.437448
  H       4.124476      0.583567     -0.463608
  H       2.624754      0.261000     -1.438778
  C       0.356161      0.084103     -0.289239
  H       0.630524     -1.012835      1.500477
  H       0.294505     -2.013373      0.079129
  H       2.828591      1.840992      1.169381
  H       3.006477     -0.932883      0.944216
  H       2.695912     -1.559974     -0.725357
  H       2.427252     -2.533467      0.679211
  Br     -1.610099      0.071789     -0.186372
  C       0.553269      0.692329      4.292322
  O      -0.024490      0.418135      3.144732
  H       1.636826      0.358861      4.357864
  H       0.581967      1.798188      4.543569
  H       0.053497      0.210112      5.186565
>
23
Coordinates from ORCA-job scants+numfreq Relaxed Surface Scan Step 21
  C       2.389132     -1.475682      0.262138
  C       3.019593      0.564650     -0.511652
  C       0.851784      1.403131      0.294936
  H       0.508757      0.028569     -1.364744
  C       2.349383      1.356406      0.312239
  H       0.463368      2.263509     -0.261256
  H       0.494041      1.466991      1.332151
  C       0.902698     -1.118050      0.451511
  H       4.095091      0.495080     -0.450691
  H       2.596087      0.263614     -1.449861
  C       0.351297      0.095134     -0.286638
  H       0.709031     -0.949196      1.519128
  H       0.314775     -1.988338      0.141894
  H       2.823955      1.788042      1.184370
  H       3.065989     -0.954940      0.915325
  H       2.702538     -1.551829     -0.765838
  H       2.439012     -2.521971      0.629501
  Br     -1.611659      0.056383     -0.134174
  C       0.532963      0.683372      4.323290
  O       0.019699      0.426614      3.142555
  H       1.624192      0.385868      4.430216
  H       0.510357      1.781168      4.610042
  H       0.010526      0.155305      5.178777
>
23
Coordinates from ORCA-job scants+numfreq Relaxed Surface Scan Step 22
  C       2.415149     -1.442451      0.254149
  C       2.987777      0.509452     -0.494781
  C       0.847838      1.417293      0.290596
  H       0.483622      0.048005     -1.369058
  C       2.345681      1.348287      0.309691
  H       0.465370      2.279329     -0.267195
  H       0.489843      1.484347      1.327385
  C       0.921537     -1.100040      0.438453
  H       4.063899      0.430848     -0.445060
  H       2.562906      0.249088     -1.445083
  C       0.345430      0.109459     -0.288125
  H       0.726768     -0.940501      1.507456
  H       0.344559     -1.976451      0.125665
  H       2.825985      1.762090      1.187533
  H       3.089508     -0.955970      0.935460
  H       2.743688     -1.548407     -0.765462
  H       2.447041     -2.497556      0.622349
  Br     -1.614509      0.046968     -0.102101
  C       0.527515      0.682891      4.322397
  O       0.018730      0.427950      3.139583
  H       1.621062      0.393968      4.430161
  H       0.495359      1.779082      4.614845
  H       0.007850      0.146149      5.174363
>
23
Coordinates from ORCA-job scants+numfreq Relaxed Surface Scan Step 23
  C       2.437142     -1.400944      0.264324
  C       2.956717      0.452202     -0.481111
  C       0.847654      1.439417      0.273865
  H       0.452905      0.063485     -1.372076
  C       2.345703      1.349727      0.291359
  H       0.473516      2.297343     -0.296509
  H       0.489042      1.525037      1.308569
  C       0.934439     -1.075714      0.432376
  H       4.034248      0.373253     -0.447479
  H       2.528246      0.218738     -1.437854
  C       0.337666      0.128047     -0.288610
  H       0.735013     -0.921232      1.501536
  H       0.369903     -1.958257      0.114806
  H       2.831956      1.759326      1.168329
  H       3.104755     -0.942628      0.972392
  H       2.790229     -1.559381     -0.740137
  H       2.447008     -2.461148      0.651294
  Br     -1.617827      0.049753     -0.062414
  C       0.526147      0.660178      4.315854
  O       0.023387      0.412428      3.129501
  H       1.624039      0.386711      4.422297
  H       0.477188      1.752237      4.622070
  H       0.013535      0.105251      5.160837
>
23
Coordinates from ORCA-job scants+numfreq Relaxed Surface Scan Step 24
  C       2.456711     -1.358999      0.262880
  C       2.929688      0.398754     -0.464411
  C       0.845939      1.453137      0.263518
  H       0.432451      0.078021     -1.377642
  C       2.345130      1.349699      0.276770
  H       0.475314      2.311126     -0.309892
  H       0.487532      1.544327      1.297623
  C       0.944225     -1.057027      0.423164
  H       4.009712      0.331392     -0.447405
  H       2.506236      0.198108     -1.432616
  C       0.330978      0.141906     -0.292771
  H       0.742900     -0.906841      1.492705
  H       0.391677     -1.946042      0.103701
  H       2.833389      1.748249      1.158586
  H       3.119331     -0.938190      1.000634
  H       2.826823     -1.572240     -0.726134
  H       2.446543     -2.430294      0.664259
  Br     -1.620969      0.047996     -0.041330
  C       0.525030      0.648915      4.315873
  O       0.024038      0.404183      3.128431
  H       1.625614      0.385166      4.420234
  H       0.466223      1.738599      4.629199
  H       0.018096      0.083885      5.157842
>
23
Coordinates from ORCA-job scants+numfreq Relaxed Surface Scan Step 25
  C       2.467828     -1.301487      0.288993
  C       2.905664      0.341632     -0.455929
  C       0.849730      1.478047      0.233982
  H       0.408875      0.088429     -1.383418
  C       2.350477      1.362417      0.233513
  H       0.479812      2.328591     -0.352464
  H       0.498242      1.594120      1.267743
  C       0.942567     -1.028319      0.424540
  H       3.988593      0.291518     -0.457654
  H       2.488038      0.155087     -1.432081
  C       0.321862      0.162862     -0.297832
  H       0.727753     -0.876310      1.491556
  H       0.407124     -1.925399      0.100088
  H       2.843959      1.764298      1.112358
  H       3.116905     -0.907690      1.057354
  H       2.866467     -1.598851     -0.669284
  H       2.432309     -2.380883      0.730179
  Br     -1.626172      0.067965     -0.018942
  C       0.531664      0.604020      4.311456
  O       0.033280      0.354671      3.124237
  H       1.641017      0.376077      4.408439
  H       0.438813      1.688279      4.635668
  H       0.047804      0.014755      5.150718
>
23
Coordinates from ORCA-job scants+numfreq Relaxed Surface Scan Step 26
  C       2.478260     -1.247106      0.286484
  C       2.888833      0.289090     -0.450807
  C       0.858548      1.485859      0.239793
  H       0.390887      0.119408     -1.386045
  C       2.361990      1.367740      0.204583
  H       0.478863      2.345246     -0.329139
  H       0.524729      1.592621      1.280778
  C       0.938023     -1.018937      0.405128
  H       3.975027      0.262595     -0.475420
  H       2.478064      0.130260     -1.438334
  C       0.314759      0.181535     -0.298868
  H       0.706994     -0.893252      1.471845
  H       0.424570     -1.916821      0.051108
  H       2.861978      1.751465      1.090207
  H       3.110075     -0.898468      1.095254
  H       2.899894     -1.626722     -0.636218
  H       2.418178     -2.355114      0.759151
  Br     -1.630360      0.086895     -0.000281
  C       0.529925      0.595024      4.312121
  O       0.046428      0.277600      3.135311
  H       1.654632      0.458539      4.406535
  H       0.353317      1.676312      4.610985