23
 energy: -30.524323660111 gnorm: 0.135984590249 xtb: 6.4.0 (d4b70c2)
C         0.16965394000000   -1.65302418400000   -0.58842935400000
C         0.59247752200000   -0.17812131900000   -0.62591397500000
C        -1.65250417100000    0.61250705800000   -1.45206628500000
H        -0.91963463800000   -0.83027591400000   -2.90830599500000
C        -0.60216231400000    0.72440243700000   -0.33544699900000
H        -1.46656143500000    1.35818510800000   -2.22775588200000
H        -2.64092233700000    0.81345055300000   -1.03455075500000
C        -1.28694625500000   -1.83939253500000   -1.04333708400000
H         1.38008332800000   -0.00292147000000    0.10782992100000
H         0.99858505200000    0.07393600300000   -1.60759591000000
C        -1.62191751300000   -0.77965882000000   -2.07471551500000
H        -1.96996530500000   -1.73926137600000   -0.19749020100000
H        -1.42157263400000   -2.83902529400000   -1.46008456500000
H        -0.28062077400000    1.76248376700000   -0.24656651500000
H        -1.04039897600000    0.43224841000000    0.62014183200000
H         0.83304132600000   -2.23522022500000   -1.23001197800000
H         0.26802933100000   -2.04297699700000    0.42534089900000
Br       -3.38043737300000   -1.17990137100000   -2.92993899900000
C         3.00892724700000   -1.63981574000000   -4.89613394700000
O         1.39193470600000   -1.59370067900000   -4.57552151700000
H         3.16408503900000   -1.97691257300000   -5.89972613900000
H         3.42347754100000   -0.66013656900000   -4.78084590800000
H         3.48839059000000   -2.31230294800000   -4.21585846300000
23
 energy: -30.551722831686 gnorm: 0.097367730531 xtb: 6.4.0 (d4b70c2)
C         0.16705505593671   -1.65231710942648   -0.58716782185976
C         0.58979167853033   -0.17802990978321   -0.62538248967440
C        -1.65403405275506    0.61183592620689   -1.45358379221264
H        -0.90867729089136   -0.83646272496837   -2.91288801544291
C        -0.60503432457738    0.72477718292617   -0.33590976404637
H        -1.46480329230254    1.35622498659549   -2.23034697670185
H        -2.64446778101258    0.80913417578476   -1.03757318572999
C        -1.28874509361646   -1.83856540973368   -1.04371982723014
H         1.38050452463091   -0.00429058289407    0.10628293189076
H         0.99704400857533    0.06344792210403   -1.61068375583912
C        -1.61019371448603   -0.77898948480015   -2.07776967426246
H        -1.97351971138061   -1.73687003898593   -0.19849167937727
H        -1.41862218617526   -2.83819536371986   -1.46368458472031
H        -0.28131392765049    1.76254921787585   -0.24925317764782
H        -1.04307506372779    0.43095698213340    0.61941579472921
H         0.82999246680486   -2.22830612113267   -1.23660719605791
H         0.26741761364509   -2.04426665748981    0.42641951433266
Br       -3.36034790521066   -1.17377060799964   -2.91285939119805
C         2.98080925206212   -1.63820038445767   -4.88924239645382
O         1.53339266136045   -1.59131111535067   -4.59585332147124
H         3.11329613667218   -1.98187935577389   -5.90877378612674
H         3.38187808275297   -0.63844065879137   -4.76808020308342
H         3.44669475981528   -2.32446554631911   -4.19123053581640
23
 energy: -30.552126030669 gnorm: 0.149422105601 xtb: 6.4.0 (d4b70c2)
C         0.16629489497599   -1.65268992698020   -0.58501352161078
C         0.58805495370947   -0.17785146643494   -0.62407163484672
C        -1.65143834555769    0.61003796809483   -1.45547446702779
H        -0.90139240428429   -0.84135697018303   -2.91168524855584
C        -0.60534207986198    0.72678118087333   -0.33615316341428
H        -1.46155771127672    1.35459867659189   -2.23261748669121
H        -2.64330926416418    0.80421080204258   -1.04118725173873
C        -1.28822050565201   -1.83673569568393   -1.04506697001976
H         1.38163587526038   -0.00410717045770    0.10491704203527
H         0.99632882817347    0.05493803992723   -1.61249565628250
C        -1.61182716854233   -0.78091775490415   -2.08228332719349
H        -1.97548683310645   -1.73420298265073   -0.20161292100722
H        -1.41438831736127   -2.83726451491886   -1.46530780251925
H        -0.27988938883808    1.76402186601175   -0.25045103607543
H        -1.04420475166288    0.43106401775888    0.61819457492274
H         0.82847060670135   -2.22245978343267   -1.24217549358202
H         0.26936736440950   -2.04801285175003    0.42733030634519
Br       -3.34478120601391   -1.17195308330386   -2.91019359165122
C         2.87115554131008   -1.63227500422368   -4.86376975327657
O         1.67958905855299   -1.59127665280787   -4.61789760161217
H         3.08594342051025   -1.97939024079315   -5.89957619049555
H         3.36474685321519   -0.63824349064822   -4.76343855079087
H         3.42529247650316   -2.32234964012741   -4.18695358891178
23
 energy: -30.563360223693 gnorm: 0.038380702028 xtb: 6.4.0 (d4b70c2)
C         0.16661155237592   -1.65298856098721   -0.58527857201763
C         0.58839368475009   -0.17847912693457   -0.62440234416782
C        -1.65053453548644    0.61008374456246   -1.45725067464626
H        -0.89556120669574   -0.84189829138052   -2.91211206590752
C        -0.60536206083839    0.72618318364938   -0.33712477627508
H        -1.46063609841443    1.35454060255677   -2.23413077425137
H        -2.64333629650717    0.80288953868674   -1.04424811350345
C        -1.28746022570212   -1.83794769658336   -1.04499985557820
H         1.38163788600674   -0.00415006066412    0.10455391750602
H         0.99606617737585    0.05406744052076   -1.61257898727122
C        -1.60538624317440   -0.78098387663615   -2.08268708857639
H        -1.97625235729209   -1.73432767933830   -0.20294197976784
H        -1.41402902931074   -2.83799308243800   -1.46565165518428
H        -0.28062609220811    1.76366796151517   -0.25146298773677
H        -1.04515559987823    0.43144892667140    0.61716465327513
H         0.82870409141110   -2.22233205959443   -1.24219262048777
H         0.26951507533560   -2.04881362189068    0.42672121386681
Br       -3.34330836546428   -1.17188268496351   -2.90950222800549
C         2.89923992922853   -1.63299368339592   -4.86878487819170
O         1.56873519948138   -1.58036365865180   -4.58591821617661
H         3.10441257114765   -1.98154206352622   -5.90758711173630
H         3.39005585791778   -0.63580291030406   -4.76773059499116
H         3.44931798294154   -2.32581701887374   -4.18883759417504
23
 energy: -30.564834857597 gnorm: 0.015558991656 xtb: 6.4.0 (d4b70c2)
C         0.16927377770367   -1.65471601710836   -0.58527957754764
C         0.59067988449492   -0.17980654490779   -0.62450026604816
C        -1.64493187698161    0.60826848840784   -1.46354629474105
H        -0.88226182580802   -0.84517270541362   -2.91261957680574
C        -0.60335428304353    0.72549255336373   -0.34061424798278
H        -1.45402036010232    1.35279546636456   -2.24013479006394
H        -2.63946926994183    0.79970335499727   -1.05398123856045
C        -1.28367487414388   -1.83947539170134   -1.04722814456131
H         1.38330840278596   -0.00418332714513    0.10467337962698
H         0.99902582627892    0.05150746841712   -1.61264418411389
C        -1.59833504701572   -0.78381354379443   -2.08804371275196
H        -1.97547794472784   -1.73374831614410   -0.20783528676741
H        -1.41027914129837   -2.84015084491740   -1.46638084397347
H        -0.27898990986111    1.76299507886775   -0.25484763395091
H        -1.04598847472118    0.43180062773006    0.61268839315765
H         0.83175002065292   -2.22300012380946   -1.24254684042518
H         0.27164982332506   -2.05180608714207    0.42609335417290
Br       -3.33143123944796   -1.17432188884428   -2.91959839532161
C         2.85856512807426   -1.62646797099863   -4.85212929484019
O         1.56263474516939   -1.56376448501874   -4.55966770326059
H         3.07987816808921   -1.97853799123260   -5.89838456579225
H         3.39264152748590   -0.63502386518173   -4.76488984352585
H         3.44384884003328   -2.32400861278847   -4.18556601992300
23
 energy: -30.565366178974 gnorm: 0.005708860940 xtb: 6.4.0 (d4b70c2)
C         0.17511554566601   -1.65755817619093   -0.58598589629305
C         0.59648524653255   -0.18235547988229   -0.62500388216158
C        -1.63473525330406    0.60469706405258   -1.47476300294257
H        -0.86264512900093   -0.85081732607670   -2.91549040095367
C        -0.59853001469403    0.72359904016717   -0.34737818866047
H        -1.44146861369993    1.34866593556607   -2.25122155429143
H        -2.63144299974810    0.79579633226536   -1.07028538498626
C        -1.27618782056846   -1.84200570942031   -1.05174005338570
H         1.38658028639165   -0.00509308372479    0.10628338858548
H         1.00742241906015    0.04824430707827   -1.61204815512370
C        -1.58641508712570   -0.78882714317637   -2.09747939299474
H        -1.97165905416342   -1.73247317086116   -0.21586824670039
H        -1.40359994398864   -2.84391714159006   -1.46751956744025
H        -0.27441721793568    1.76110865107437   -0.26115415973131
H        -1.04592189910004    0.43204285933347    0.60441508649891
H         0.83896780601576   -2.22552968407919   -1.24180277280834
H         0.27573618485107   -2.05525440706211    0.42512314211244
Br       -3.31013327612765   -1.18195387410411   -2.94653048830745
C         2.81305932681358   -1.61492161502338   -4.82598590962099
O         1.54713279246083   -1.53487661799362   -4.51366170294635
H         3.02539951302843   -1.97317508941998   -5.88275985106760
H         3.38408590459740   -0.62809551203938   -4.75433174719864
H         3.42221318103949   -2.32273483689261   -4.17179459358207
23
 energy: -30.565681562251 gnorm: 0.008367704782 xtb: 6.4.0 (d4b70c2)
C         0.18062052296257   -1.66029879084934   -0.58643165093653
C         0.60178533793836   -0.18497212621428   -0.62532140749862
C        -1.62524963809149    0.60056716800590   -1.48714319758030
H        -0.83909798731593   -0.85642621030139   -2.91942711324073
C        -0.59479743410949    0.72120228710010   -0.35466575682101
H        -1.42886239778808    1.34396839526327   -2.26331745585024
H        -2.62458393460862    0.79054267283864   -1.08824505478223
C        -1.26879859868404   -1.84479561112191   -1.05707367545998
H         1.38861138779086   -0.00634059360202    0.10910523759854
H         1.01656937425399    0.04430768495590   -1.61101172884297
C        -1.57020973193449   -0.79367822708853   -2.10786774904988
H        -1.96805439075086   -1.73099799485556   -0.22478355598904
H        -1.39637360358787   -2.84787043776456   -1.46992837858886
H        -0.27116745142906    1.75888379595675   -0.26827933761822
H        -1.04684600389876    0.43136753247422    0.59554579271550
H         0.84648345091311   -2.22822390834296   -1.24015340040024
H         0.27824651850507   -2.05768831999579    0.42505269180938
Br       -3.28925499184068   -1.18686581834486   -2.96658226736898
C         2.78093782498642   -1.60464896812058   -4.80440466375624
O         1.52787107864222   -1.50043710035168   -4.45904912544085
H         2.96793826266901   -1.96840843406177   -5.86812897562133
H         3.37219339720770   -0.62285396053779   -4.74533408592096
H         3.39708090517048   -2.32176771304129   -4.15953847535579
23
 energy: -30.566320922403 gnorm: 0.009301893441 xtb: 6.4.0 (d4b70c2)
C         0.19100428791421   -1.66581159523069   -0.58570041408266
C         0.61251468224368   -0.19058008182488   -0.62511267075465
C        -1.60563351071154    0.59232468809372   -1.51130394020613
H        -0.79275776789679   -0.86894305653162   -2.92628960783852
C        -0.58657463205907    0.71693691317902   -0.36880214873772
H        -1.40284914826727    1.33416296988078   -2.28729556592463
H        -2.60996675224782    0.78038213243611   -1.12331892150550
C        -1.25478345972862   -1.84975102648143   -1.06610630623928
H         1.39281210438402   -0.00935842850840    0.11568239215970
H         1.03531696701497    0.03457394753420   -1.60839919376361
C        -1.53768386594171   -0.80339026147530   -2.12730467877578
H        -1.96126243412853   -1.72613954947690   -0.24093815036248
H        -1.38322196637348   -2.85537930964382   -1.47237946900192
H        -0.26328004084208    1.75486909363394   -0.28284164539545
H        -1.04799330602442    0.43111408037425    0.57836816043394
H         0.86043736335051   -2.23389340871525   -1.23560812406192
H         0.28266569898474   -2.06218311682546    0.42680491005231
Br       -3.24514053430690   -1.19856849233875   -3.00852004771569
C         2.72359269274133   -1.58148387577622   -4.76073197428020
O         1.48293441024519   -1.44036394088174   -4.37675107726118
H         2.86003131183868   -1.95562308901073   -5.83503599439896
H         3.34486419202846   -0.61045468738380   -4.72417307113744
H         3.34001560478320   -2.31787458302620   -4.13122579520156
23
 energy: -30.567370802529 gnorm: 0.017936001194 xtb: 6.4.0 (d4b70c2)
C         0.21096888394619   -1.67632927519964   -0.58357359275826
C         0.63408524685007   -0.20152880701901   -0.62394679399128
C        -1.56620695733810    0.57665679256011   -1.55755670619482
H        -0.70702568318577   -0.89282104423318   -2.94019609055461
C        -0.56905545701591    0.70936166730812   -0.39596993084976
H        -1.35124623869979    1.31562316151409   -2.33314087840717
H        -2.57955022992344    0.76124501260107   -1.18996537726945
C        -1.22743333397391   -1.85845183678871   -1.08471559337470
H         1.40157529079687   -0.01559022351751    0.12938482201349
H         1.07293975032527    0.01474335023109   -1.60257657319813
C        -1.47682466523304   -0.82156055672003   -2.16457747276394
H        -1.94785239559410   -1.71662459124569   -0.27363060084258
H        -1.35699090899671   -2.86878907218443   -1.47890053536422
H        -0.24582299610168    1.74759349581863   -0.31116647756137
H        -1.04873655042233    0.43126295471921    0.54505632139259
H         0.88729212221390   -2.24504962813493   -1.22586972974268
H         0.29013698411170   -2.07090133096921    0.43097237261611
Br       -3.15780401849637   -1.22190171961616   -3.09414578776707
C         2.61257467527553   -1.53756377433277   -4.67944587241753
O         1.39521671856229   -1.33778432469118   -4.21574534789928
H         2.66411361738125   -1.92587356553931   -5.76844609674408
H         3.27395897685498   -0.58778376640419   -4.68096053558785
H         3.22672906566459   -2.30336759615476   -4.07786685673232
23
 energy: -30.568465394154 gnorm: 0.018050639929 xtb: 6.4.0 (d4b70c2)
C         0.22901195726103   -1.68563960636294   -0.58219874479604
C         0.65439836183072   -0.21148718157589   -0.62328526099889
C        -1.52963319352325    0.56365531093876   -1.59823868417896
H        -0.62854662060428   -0.91159910343778   -2.95172901141959
C        -0.55156842274943    0.70269030789275   -0.42038322671167
H        -1.30372900280828    1.30046394768512   -2.37293893140523
H        -2.55063400578132    0.74496497127627   -1.24843262330079
C        -1.20251850491556   -1.86576381082513   -1.10231730172023
H         1.41065062764048   -0.02169176952008    0.14089649540610
H         1.10711448074192   -0.00317909989859   -1.59769079162178
C        -1.42006933608706   -0.83625275391309   -2.19738232706790
H        -1.93499813227704   -1.70846965806116   -0.30391207933652
H        -1.33325545905491   -2.87975936992468   -1.48673161763911
H        -0.22783174457225    1.74099474804586   -0.33692817092447
H        -1.04699738251502    0.43160150324106    0.51513632519879
H         0.91141597819412   -2.25541768918146   -1.21722003825288
H         0.29604349523597   -2.07866890776316    0.43411072679989
Br       -3.08168273784242   -1.23662540948173   -3.16072691893181
C         2.51214723571558   -1.49829541342364   -4.60260543714624
O         1.30635029185564   -1.28621004060584   -4.11920906502432
H         2.51767690048066   -1.88855413926320   -5.69893608302443
H         3.18001998379887   -0.56079594255172   -4.62647933177371
H         3.12167712697818   -2.28139557128732   -4.01978123612875
23
 energy: -30.569303255568 gnorm: 0.010416539716 xtb: 6.4.0 (d4b70c2)
C         0.23614770996449   -1.68932086345008   -0.57850225826061
C         0.66454454537560   -0.21607834660815   -0.61989812370462
C        -1.50872712281717    0.55893587925880   -1.61517347936852
H        -0.60223853077058   -0.91954546030281   -2.95568602830135
C        -0.54012021523238    0.70149381072731   -0.43072060923198
H        -1.27724864901967    1.29402252411483   -2.38984654692069
H        -2.53148475108235    0.74042020442630   -1.27307336542531
C        -1.19055564013079   -1.86797872462778   -1.11190445326435
H         1.41484320038416   -0.02484449154063    0.14948859620293
H         1.12434630136671   -0.01269721756100   -1.59173443685439
C        -1.39737051392682   -0.84163561996931   -2.20902344389225
H        -1.92854617651951   -1.70706598829320   -0.32071633942444
H        -1.32009575807223   -2.88248101178963   -1.49461354419459
H        -0.21461806557357    1.73935764250747   -0.34915645982764
H        -1.04364591857460    0.43448688417513    0.50112977295514
H         0.92205128746512   -2.26122787905156   -1.20774072500807
H         0.29413352777068   -2.08115629107676    0.43889501219068
Br       -3.04123916157179   -1.24757936517713   -3.19382272904283
C         2.46555180632134   -1.48290618446918   -4.57312592117615
O         1.25531567490384   -1.29079669813085   -4.11124228436638
H         2.48779011613241   -1.86293842458363   -5.65827152000918
H         3.10200482470882   -0.54891960742834   -4.59239853977930
H         3.06420340590127   -2.25697944914690   -3.98984590729459
23
 energy: -30.569995381116 gnorm: 0.006259243218 xtb: 6.4.0 (d4b70c2)
C         0.24806545797931   -1.69586174854049   -0.56978333912710
C         0.67969049670363   -0.22353380759853   -0.61370587836198
C        -1.47675357755963    0.54791055181793   -1.64666800803740
H        -0.55113586154078   -0.93787460009568   -2.96292148675621
C        -0.52536021186370    0.69809293347359   -0.44889080792511
H        -1.23489960143505    1.27947665357958   -2.42188710198569
H        -2.50432975874803    0.73013016782807   -1.32000567628772
C        -1.17052737015555   -1.87358970286285   -1.12608048818664
H         1.41991236900717   -0.02843159843615    0.16451401824542
H         1.15209348124717   -0.02846737725698   -1.58137965325830
C        -1.36022688714760   -0.85514328303837   -2.23226573309212
H        -1.92123948845310   -1.70714013038671   -0.34825413108207
H        -1.29469719252161   -2.88996429864959   -1.50545033143449
H        -0.19848146010010    1.73568997348997   -0.37049339692081
H        -1.04344666685544    0.43851293469356    0.47706468920709
H         0.94137132818704   -2.27160997540120   -1.18756752931210
H         0.29055807759498   -2.08388166874797    0.45006856334247
Br       -2.97720184999734   -1.26566139783636   -3.25327246262753
C         2.37921926222687   -1.45423469358790   -4.52568398034866
O         1.18038654852684   -1.23144602598973   -4.03407169616444
H         2.38282159784450   -1.83829974171866   -5.60155846747633
H         3.03973513253937   -0.54056246742834   -4.56056221247150
H         2.97948807152459   -2.22954537530365   -3.95812822393700
23
 energy: -30.570143807987 gnorm: 0.004785587504 xtb: 6.4.0 (d4b70c2)
C         0.25232738122333   -1.70004679726929   -0.56202817793864
C         0.68743411446963   -0.22886006756561   -0.61069136690922
C        -1.45936357679615    0.54241070005952   -1.66484782248812
H        -0.52564976903283   -0.94836175923878   -2.96329442961671
C        -0.51680831583746    0.69604359909162   -0.46098374353381
H        -1.20829796696618    1.26867593252276   -2.44260743348688
H        -2.48919385166513    0.72977037623053   -1.34830202299588
C        -1.16087125525071   -1.87986726294966   -1.13169845522209
H         1.42203977390016   -0.03059924290405    0.17199844154006
H         1.16696084492581   -0.03989772474803   -1.57602277277996
C        -1.34183947487359   -0.86412256476838   -2.24170714488609
H        -1.91954630751710   -1.71433676253348   -0.36175612711463
H        -1.27879020823765   -2.89699079141185   -1.51162156752149
H        -0.18793639743033    1.73323058672270   -0.38634253075538
H        -1.04334955602464    0.44322411711579    0.46188319244925
H         0.95176512221946   -2.28135079937474   -1.16777617866018
H         0.28310898016029   -2.08180957391834    0.46048592884123
Br       -2.94875553968106   -1.27354611324825   -3.27306693694073
C         2.33481299817705   -1.43545636736313   -4.50308861617512
O         1.14167631372640   -1.19024007980361   -4.01435594347095
H         2.32687585456362   -1.82505718801714   -5.57219992499646
H         3.02117508777846   -0.53378587882823   -4.54278520478061
H         2.92726764517253   -2.21446101579645   -3.93617449655571
23
 energy: -30.570240817424 gnorm: 0.003745051395 xtb: 6.4.0 (d4b70c2)
C         0.25014925568321   -1.70160269247414   -0.55542756195213
C         0.68833828832730   -0.23162815826995   -0.61034330219972
C        -1.45513562223352    0.54134425823097   -1.66899444277825
H        -0.52744421955236   -0.95354249220467   -2.96062107151200
C        -0.51372329664106    0.69612600611393   -0.46519231638955
H        -1.19798262178137    1.26177058941409   -2.45046844014335
H        -2.48436998235012    0.73663796786953   -1.35595089678345
C        -1.16092200749698   -1.88350802950556   -1.12964779387705
H         1.42218149789968   -0.03173876180578    0.17238731905272
H         1.16930700686161   -0.04669222955239   -1.57555207043933
C        -1.34298710960339   -0.86814607767098   -2.23986829028382
H        -1.92222437795563   -1.72227343901115   -0.36184962610979
H        -1.27435439557368   -2.90042935985563   -1.51205682503787
H        -0.18232231112732    1.73280340371806   -0.39388664911356
H        -1.04224521297872    0.44780378637558    0.45740165443305
H         0.95251471693103   -2.28861027324404   -1.15226771383239
H         0.27499028242502   -2.07643352794320    0.46963157889903
Br       -2.94957132469071   -1.27795168618644   -3.26972783807729
C         2.33138683306059   -1.43047748426202   -4.50632797199805
O         1.13806716320849   -1.16250940235031   -4.02746959892665
H         2.32310905170617   -1.82062186257618   -5.57168945896909
H         3.02865814638015   -0.53301382095181   -4.53951009775198
H         2.90962213650552   -2.21274139185395   -3.92955192020758
23
 energy: -30.570368067258 gnorm: 0.005723341919 xtb: 6.4.0 (d4b70c2)
C         0.24327417158018   -1.70500402654090   -0.53710752304798
C         0.68948192398702   -0.23832530661706   -0.60878541660278
C        -1.44527841039373    0.53891914817841   -1.67793702483288
H        -0.52753738209596   -0.96590995983844   -2.95751054440966
C        -0.50763167685392    0.69606847317740   -0.47256404529739
H        -1.17337671317485    1.24619276277973   -2.46690947614892
H        -2.47365042279620    0.75220959683026   -1.37343177609660
C        -1.16227773892571   -1.89069637330263   -1.12453398329308
H         1.42298310122839   -0.03471164100588    0.17294500766347
H         1.17221105505674   -0.06404479924714   -1.57492140031702
C        -1.34259587164392   -0.87650784936168   -2.23749904762144
H        -1.93097157510431   -1.73782271692629   -0.36235398191717
H        -1.26696137095470   -2.90698299588950   -1.51232956752064
H        -0.17048604178535    1.73151348513225   -0.40755708214833
H        -1.04062422109956    0.45688359615330    0.44946163731276
H         0.95213256677777   -2.30669086447613   -1.11187228568310
H         0.25279993155776   -2.06139518413533    0.49499346622242
Br       -2.95350297043281   -1.28564543128964   -3.25810613958276
C         2.32634544030476   -1.41456944701930   -4.52060567162642
O         1.13242135078629   -1.11726381837512   -4.05900766088918
H         2.32494896588061   -1.80985362036537   -5.57665548850472
H         3.04617452965017   -0.52782709734318   -4.53986495243393
H         2.86716325545532   -2.20397060851371   -3.91483037722271
23
 energy: -30.570459202117 gnorm: 0.008738249166 xtb: 6.4.0 (d4b70c2)
C         0.23817094767986   -1.70801034238932   -0.51878847638794
C         0.69189225449578   -0.24462150629144   -0.60681464881026
C        -1.43407644642117    0.53513288949508   -1.68831798197689
H        -0.52218265005940   -0.98076515710643   -2.95882383832381
C        -0.50168475498573    0.69561136117047   -0.47948308481911
H        -1.15129821327314    1.23278851966825   -2.48200478661567
H        -2.46235719942897    0.76016968561735   -1.39144422109647
C        -1.16168729459421   -1.89615117452232   -1.12017067935564
H         1.42614228994291   -0.03686917063946    0.17314063378275
H         1.17496757088203   -0.08176444205220   -1.57495127447972
C        -1.33669987766531   -0.88514556047282   -2.23821384605037
H        -1.93770510464133   -1.74502645010073   -0.36438330705285
H        -1.26171415977718   -2.91280137140413   -1.50881348401873
H        -0.16080425961155    1.73022740738226   -0.41901316859012
H        -1.03940825519406    0.46351234528948    0.44176544728012
H         0.95184425868293   -2.32306073187349   -1.07387654448308
H         0.23323395465135   -2.04685331165679    0.51994707029169
Br       -2.94971832809938   -1.29482308286391   -3.25546025273017
C         2.31517696093212   -1.40098857353141   -4.52553372762175
O         1.11948223951570   -1.06217375438980   -4.08969935991681
H         2.32024245312009   -1.79612695193583   -5.57802227658845
H         3.05255889876143   -0.52689059547244   -4.53402828188076
H         2.83066661209136   -2.20080470991615   -3.90399324455403
23
 energy: -30.570590165902 gnorm: 0.008226306384 xtb: 6.4.0 (d4b70c2)
C         0.23185522473282   -1.71181245120255   -0.49928048281075
C         0.69569379885041   -0.25289199377433   -0.60497758825579
C        -1.42045270229798    0.53074695640527   -1.69980636411755
H        -0.51622216765942   -0.99736045290606   -2.96166897697742
C        -0.49375383832328    0.69422257934919   -0.48715025020059
H        -1.12816985785779    1.22019236511913   -2.49677742566073
H        -2.44858046975824    0.76479086745175   -1.41033021663171
C        -1.16182901521767   -1.90055869171514   -1.11521537474577
H         1.43230899214287   -0.04099486557476    0.17171755351485
H         1.17759534256133   -0.10267308410160   -1.57591238761211
C        -1.32933024567453   -0.89415819206425   -2.23919201350340
H        -1.94487220772948   -1.74576315024670   -0.36704479764143
H        -1.26062384244227   -2.91841964617955   -1.50080219039723
H        -0.14915160405145    1.72782293546617   -0.43063344521699
H        -1.03673807127622    0.46895899698412    0.43302449829558
H         0.94901947522075   -2.34179126789414   -1.03305475228631
H         0.21092247878967   -2.03164783310704    0.54583123556106
Br       -2.94329898617574   -1.30325533136147   -3.25783943337518
C         2.30149974860987   -1.38071165496883   -4.52905327551707
O         1.10423071334689   -1.01819354844271   -4.11835270427857
H         2.31792174617667   -1.78398533381824   -5.57820331654003
H         3.05359984915522   -0.52127275125856   -4.53086495380661
H         2.79341753588184   -2.18667913015524   -3.89139667179430
23
 energy: -30.570851139922 gnorm: 0.005521586444 xtb: 6.4.0 (d4b70c2)
C         0.21617468213802   -1.72049457262972   -0.45678179763346
C         0.70461628607547   -0.27319054082302   -0.60132416084558
C        -1.38915960622553    0.51873284957971   -1.72536310282471
H        -0.49456626661190   -1.03319956568093   -2.96808743885010
C        -0.47513750758287    0.68937723141991   -0.50389414053633
H        -1.07846599604295    1.19278950405971   -2.52752383206341
H        -2.41793890238523    0.76709801137689   -1.45229620329469
C        -1.16397719806842   -1.90753540083231   -1.10415088598797
H         1.44851688946343   -0.05276024986078    0.16644158711093
H         1.18251955008617   -0.15136237549985   -1.57882912594389
C        -1.30797758382729   -0.91420183878312   -2.24357403785149
H        -1.96181098520388   -1.73593026507672   -0.37465596951857
H        -1.26499004776727   -2.92943672722307   -1.47705693013318
H        -0.12249826256558    1.72048715095915   -0.45528028801038
H        -1.02958739829643    0.47832262757988    0.41347931015125
H         0.93873254860355   -2.38322557118681   -0.94286914829997
H         0.15927318718428   -1.99828778321671    0.60018829907636
Br       -2.92593368883141   -1.32104326514424   -3.26301829583028
C         2.26946083648988   -1.33095674926959   -4.53429983294787
O         1.06831811266870   -0.92608950137206   -4.17859588749941
H         2.31836897016246   -1.76611768579497   -5.57613498955128
H         3.04801514115886   -0.50662375963181   -4.53073013523198
H         2.71308913638259   -2.14178620094464   -3.86262632748199
23
 energy: -30.570920340959 gnorm: 0.003897017877 xtb: 6.4.0 (d4b70c2)
C         0.21131519198863   -1.72348189728189   -0.44403338254328
C         0.70865648936115   -0.28147690732360   -0.59956429500953
C        -1.37698963488809    0.51291978784980   -1.73503512800107
H        -0.48446951700857   -1.04494346698463   -2.96863483078383
C        -0.46692413610388    0.68695336009467   -0.51103836915243
H        -1.06036611145339    1.18162742955577   -2.53967503757261
H        -2.40603428723929    0.76605812953221   -1.46754670565848
C        -1.16435100169600   -1.90928077373924   -1.10067755835741
H         1.45421031751284   -0.05927912985628    0.16602352146802
H         1.18708877962561   -0.16882481159010   -1.57764228088875
C        -1.29909931583658   -0.92254387254680   -2.24584043886333
H        -1.96614471163159   -1.72897158161482   -0.37849000801388
H        -1.26783795892528   -2.93324473043184   -1.46691468986221