      -----------------------------------------------------------      
     |                   =====================                   |     
     |                           x T B                           |     
     |                   =====================                   |     
     |                         S. Grimme                         |     
     |          Mulliken Center for Theoretical Chemistry        |     
     |                    University of Bonn                     |     
      -----------------------------------------------------------      

   * xtb version 6.4.0 (d4b70c2) compiled by 'ehlert@majestix' on 2021-02-01

   xtb is free software: you can redistribute it and/or modify it under
   the terms of the GNU Lesser General Public License as published by
   the Free Software Foundation, either version 3 of the License, or
   (at your option) any later version.
   
   xtb is distributed in the hope that it will be useful,
   but WITHOUT ANY WARRANTY; without even the implied warranty of
   MERCHANTABILITY or FITNESS FOR A PARTICULAR PURPOSE.  See the
   GNU Lesser General Public License for more details.
   
   Cite this work as:
   * C. Bannwarth, E. Caldeweyher, S. Ehlert, A. Hansen, P. Pracht,
     J. Seibert, S. Spicher, S. Grimme, WIREs Comput. Mol. Sci., 2020,
     e01493. DOI: 10.1002/wcms.1493
   
   for GFN2-xTB:
   * C. Bannwarth, S. Ehlert and S. Grimme., J. Chem. Theory Comput., 2019,
     15, 1652-1671. DOI: 10.1021/acs.jctc.8b01176
   for GFN1-xTB:
   * S. Grimme, C. Bannwarth, P. Shushkov, J. Chem. Theory Comput., 2017,
     13, 1989-2009. DOI: 10.1021/acs.jctc.7b00118
   for GFN0-xTB:
   * P. Pracht, E. Caldeweyher, S. Ehlert, S. Grimme, ChemRxiv, 2019, preprint.
     DOI: 10.26434/chemrxiv.8326202.v1
   for GFN-FF:
   * S. Spicher and S. Grimme, Angew. Chem. Int. Ed., 2020, 59, 15665-15673.
     DOI: 10.1002/anie.202004239
   
   for DFT-D4:
   * E. Caldeweyher, C. Bannwarth and S. Grimme, J. Chem. Phys., 2017,
     147, 034112. DOI: 10.1063/1.4993215
   * E. Caldeweyher, S. Ehlert, A. Hansen, H. Neugebauer, S. Spicher,
     C. Bannwarth and S. Grimme, J. Chem. Phys., 2019, 150, 154122.
     DOI: 10.1063/1.5090222
   * E. Caldeweyher, J.-M. Mewes, S. Ehlert and S. Grimme, Phys. Chem. Chem. Phys.
     2020, 22, 8499-8512. DOI: 10.1039/D0CP00502A
   
   for sTDA-xTB:
   * S. Grimme and C. Bannwarth, J. Chem. Phys., 2016, 145, 054103.
     DOI: 10.1063/1.4959605
   
   in the mass-spec context:
   * V. Asgeirsson, C. Bauer and S. Grimme, Chem. Sci., 2017, 8, 4879.
     DOI: 10.1039/c7sc00601b
   * J. Koopman and S. Grimme, ACS Omega 2019, 4, 12, 15120-15133.
     DOI: 10.1021/acsomega.9b02011
   
   for metadynamics refer to:
   * S. Grimme, J. Chem. Theory Comput., 2019, 155, 2847-2862
     DOI: 10.1021/acs.jctc.9b00143
   
   with help from (in alphabetical order)
   P. Atkinson, C. Bannwarth, F. Bohle, G. Brandenburg, E. Caldeweyher
   M. Checinski, S. Dohm, S. Ehlert, S. Ehrlich, I. Gerasimov, J. Koopman
   C. Lavinge, S. Lehtola, F. März, M. Müller, F. Musil, H. Neugebauer
   J. Pisarek, P. Pracht, J. Seibert, P. Shushkov, S. Spicher, M. Stahn
   T. Strunk, J. Stückrath, T. Rose, and J. Unsleber
   
 * started run on 2021/11/09 at 16:17:30.424     

           -------------------------------------------------
          |                Calculation Setup                |
           -------------------------------------------------

          program call               : xtb bromo-cyclohexane-chair.xyz --gbsa methanol --ohess
          coordinate file            : bromo-cyclohexane-chair.xyz
          omp threads                :                     2
          number of atoms            :                    18
          number of electrons        :                    42
          charge                     :                     0
          spin                       :                   0.0
          first test random number   :      0.26260541021892

   ID    Z sym.   atoms
    1    6 C      1-3, 5, 8, 11
    2    1 H      4, 6, 7, 9, 10, 12-17
    3   35 Br     18

           -------------------------------------------------
          |                 G F N 2 - x T B                 |
           -------------------------------------------------

        Reference                      10.1021/acs.jctc.8b01176
      * Hamiltonian:
        H0-scaling (s, p, d)           1.850000    2.230000    2.230000
        zeta-weighting                 0.500000
      * Dispersion:
        s8                             2.700000
        a1                             0.520000
        a2                             5.000000
        s9                             5.000000
      * Repulsion:
        kExp                           1.500000    1.000000
        rExp                           1.000000
      * Coulomb:
        alpha                          2.000000
        third order                    shell-resolved
        anisotropic                    true
        a3                             3.000000
        a5                             4.000000
        cn-shift                       1.200000
        cn-exp                         4.000000
        max-rad                        5.000000

      * Solvation model:               GBSA
        Solvent                        methanol
        Parameter file                 internal GFN2-xTB/GBSA
        Dielectric constant                3.2700E+01
        Reference state                gsolv [1 M gas/solution]
        Free energy shift                  3.3569E-03 Eh       2.1065E+00 kcal/mol
        Temperature                        2.9815E+02 K
        Density                            7.9200E-01 kg/L
        Solvent mass                       3.2040E+01 g/mol
        Interaction kernel             Still
        Born radius scaling (c1)           1.6087E+00
        Born radii integrator          GBOBC
        Born offset                        5.6550E-04 a0       1.0686E-03 AA
        H-bond correction              true
        Ion screening                  false
        Surface tension                    1.0000E-05 Eh       1.5569E+01 dyn/cm
        Grid points                               230 per atom

          ...................................................
          :                      SETUP                      :
          :.................................................:
          :  # basis functions                  45          :
          :  # atomic orbitals                  44          :
          :  # shells                           26          :
          :  # electrons                        42          :
          :  max. iterations                   250          :
          :  Hamiltonian                  GFN2-xTB          :
          :  restarted?                      false          :
          :  GBSA solvation                   true          :
          :  PC potential                    false          :
          :  electronic temp.          300.0000000     K    :
          :  accuracy                    1.0000000          :
          :  -> integral cutoff          0.2500000E+02      :
          :  -> integral neglect         0.1000000E-07      :
          :  -> SCF convergence          0.1000000E-05 Eh   :
          :  -> wf. convergence          0.1000000E-03 e    :
          :  Broyden damping             0.4000000          :
          ...................................................

 iter      E             dE          RMSdq      gap      omega  full diag
   1    -22.7914225 -0.227914E+02  0.382E+00    5.71       0.0  T
   2    -22.8397338 -0.483113E-01  0.279E+00    5.09       1.0  T
   3    -22.8427001 -0.296628E-02  0.102E+00    5.26       1.0  T
   4    -22.8446218 -0.192175E-02  0.446E-01    5.07       1.0  T
   5    -22.8448636 -0.241804E-03  0.301E-01    5.10       1.0  T
   6    -22.8450681 -0.204502E-03  0.181E-01    5.05       1.0  T
   7    -22.8451716 -0.103458E-03  0.645E-02    5.03       1.0  T
   8    -22.8451832 -0.115668E-04  0.180E-02    5.03       1.3  T
   9    -22.8451834 -0.227112E-06  0.239E-03    5.03       9.9  T
  10    -22.8451834 -0.923956E-08  0.112E-03    5.03      21.1  T
  11    -22.8451834 -0.151949E-08  0.615E-04    5.03      38.3  T
  12    -22.8451834 -0.607077E-09  0.311E-04    5.03      75.8  T

   *** convergence criteria satisfied after 12 iterations ***

         #    Occupation            Energy/Eh            Energy/eV
      -------------------------------------------------------------
         1        2.0000           -0.8333200             -22.6758
       ...           ...                  ...                  ...
        15        2.0000           -0.4575366             -12.4502
        16        2.0000           -0.4499500             -12.2438
        17        2.0000           -0.4319734             -11.7546
        18        2.0000           -0.4289751             -11.6730
        19        2.0000           -0.4288724             -11.6702
        20        2.0000           -0.4029596             -10.9651
        21        2.0000           -0.4025697             -10.9545 (HOMO)
        22                         -0.2178923              -5.9292 (LUMO)
        23                          0.0276301               0.7519
        24                          0.0401386               1.0922
        25                          0.0484735               1.3190
        26                          0.0512812               1.3954
       ...                                ...                  ...
        44                          0.3542861               9.6406
      -------------------------------------------------------------
                  HL-Gap            0.1846774 Eh            5.0253 eV
             Fermi-level           -0.3102310 Eh           -8.4418 eV

 SCC (total)                   0 d,  0 h,  0 min,  0.017 sec
 SCC setup                      ...        0 min,  0.000 sec (  2.807%)
 Dispersion                     ...        0 min,  0.000 sec (  0.817%)
 classical contributions        ...        0 min,  0.000 sec (  0.178%)
 integral evaluation            ...        0 min,  0.003 sec ( 15.331%)
 iterations                     ...        0 min,  0.008 sec ( 45.166%)
 molecular gradient             ...        0 min,  0.006 sec ( 32.146%)
 printout                       ...        0 min,  0.001 sec (  3.300%)

         :::::::::::::::::::::::::::::::::::::::::::::::::::::
         ::                     SUMMARY                     ::
         :::::::::::::::::::::::::::::::::::::::::::::::::::::
         :: total energy             -22.576333276979 Eh    ::
         :: total w/o Gsasa/hb       -22.568737861371 Eh    ::
         :: gradient norm              0.001708918902 Eh/a0 ::
         :: HOMO-LUMO gap              5.025327586801 eV    ::
         ::.................................................::
         :: SCC energy               -22.845183411038 Eh    ::
         :: -> isotropic ES            0.010956930167 Eh    ::
         :: -> anisotropic ES          0.002396668280 Eh    ::
         :: -> anisotropic XC          0.009014535909 Eh    ::
         :: -> dispersion             -0.013417271584 Eh    ::
         :: -> Gsolv                  -0.009785077162 Eh    ::
         ::    -> Gborn               -0.002189661554 Eh    ::
         ::    -> Gsasa               -0.010213484633 Eh    ::
         ::    -> Ghb                 -0.000738860497 Eh    ::
         ::    -> Gshift               0.003356929523 Eh    ::
         :: repulsion energy           0.268807043685 Eh    ::
         :: add. restraining           0.000000000000 Eh    ::
         :: total charge               0.000000000000 e     ::
         :::::::::::::::::::::::::::::::::::::::::::::::::::::

      ----------------------------------------------------------- 
     |                   =====================                   |
     |                        A N C O P T                        |
     |                   =====================                   |
     |               Approximate Normal Coordinate               |
     |                Rational Function Optimizer                |
      ----------------------------------------------------------- 

          ...................................................
          :                      SETUP                      :
          :.................................................:
          :   optimization level            normal          :
          :   max. optcycles                   200          :
          :   ANC micro-cycles                  20          :
          :   degrees of freedom                48          :
          :.................................................:
          :   RF solver                   davidson          :
          :   write xtbopt.log                true          :
          :   linear?                        false          :
          :   energy convergence         0.5000000E-05 Eh   :
          :   grad. convergence          0.1000000E-02 Eh/α :
          :   maximium RF displ.         1.0000000          :
          :   Hlow (freq-cutoff)         0.1000000E-01      :
          :   Hmax (freq-cutoff)         5.0000000          :
          :   S6 in model hess.         20.0000000          :
          ...................................................

generating ANC from model Hessian ...
Using Lindh-Hessian (1995)
 Shifting diagonal of input Hessian by   4.120447824434152E-003
 Lowest  eigenvalues of input Hessian
    0.000000    0.000000    0.000000    0.000000    0.000000    0.000000
    0.010000    0.012692    0.014497    0.017745    0.022904    0.027823
    0.027919    0.030553    0.054362    0.055771    0.055782    0.056166
 Highest eigenvalues
    1.182456    1.188748    1.218408    1.220133    1.255262    1.279524
 

........................................................................
.............................. CYCLE    1 ..............................
........................................................................
   1    -22.8451834 -0.228452E+02  0.878E-05    5.03       0.0  T
   2    -22.8451834 -0.607159E-11  0.666E-05    5.03     354.1  T
   3    -22.8451834 -0.738609E-11  0.306E-05    5.03     770.3  T
     SCC iter.                  ...        0 min,  0.003 sec
     gradient                   ...        0 min,  0.005 sec
 * total energy  :   -22.5763333 Eh     change       -0.1934062E-09 Eh
   gradient norm :     0.0017087 Eh/α   predicted     0.0000000E+00 (-100.00%)
   displ. norm   :     0.0183659 α      lambda       -0.8624256E-05
   maximum displ.:     0.0136961 α      in ANC's #1, #4, #32, ...

........................................................................
.............................. CYCLE    2 ..............................
........................................................................
   1    -22.8454739 -0.228455E+02  0.237E-02    4.99       0.0  T
   2    -22.8454742 -0.303882E-06  0.149E-02    4.99       1.6  T
   3    -22.8454745 -0.239462E-06  0.815E-03    5.00       2.9  T
   4    -22.8454746 -0.871856E-07  0.585E-03    5.00       4.0  T
   5    -22.8454747 -0.125608E-06  0.241E-03    5.00       9.8  T
   6    -22.8454747 -0.163789E-07  0.103E-03    5.00      22.9  T
   7    -22.8454747 -0.225348E-08  0.206E-04    5.00     114.6  T
   8    -22.8454747 -0.125794E-09  0.950E-05    5.00     248.2  T
     SCC iter.                  ...        0 min,  0.007 sec
     gradient                   ...        0 min,  0.006 sec
 * total energy  :   -22.5763391 Eh     change       -0.5813075E-05 Eh
   gradient norm :     0.0009600 Eh/α   predicted    -0.4310555E-05 ( -25.85%)
   displ. norm   :     0.0100316 α      lambda       -0.3117245E-05
   maximum displ.:     0.0070151 α      in ANC's #8, #4, #1, ...

........................................................................
.............................. CYCLE    3 ..............................
........................................................................
   1    -22.8455898 -0.228456E+02  0.115E-02    4.99       0.0  T
   2    -22.8455899 -0.852513E-07  0.602E-03    4.99       3.9  T
   3    -22.8455899 -0.477585E-08  0.297E-03    4.99       7.9  T
   4    -22.8455899 -0.129868E-07  0.114E-03    4.99      20.7  T
   5    -22.8455899 -0.287241E-08  0.606E-04    4.99      38.9  T
   6    -22.8455899 -0.756387E-09  0.434E-04    4.99      54.4  T
     SCC iter.                  ...        0 min,  0.005 sec
     gradient                   ...        0 min,  0.005 sec
 * total energy  :   -22.5763398 Eh     change       -0.6972641E-06 Eh
   gradient norm :     0.0006361 Eh/α   predicted    -0.1560405E-05 ( 123.79%)
   displ. norm   :     0.0058482 α      lambda       -0.1388460E-05
   maximum displ.:     0.0045272 α      in ANC's #8, #1, #18, ...

   *** GEOMETRY OPTIMIZATION CONVERGED AFTER 3 ITERATIONS ***

------------------------------------------------------------------------
 total energy gain   :        -0.0000065 Eh       -0.0041 kcal/mol
 total RMSD          :         0.0045149 a0        0.0024 Å
 total power (kW/mol):        -0.0056978 (step)   -0.2666 (real)
------------------------------------------------------------------------

 ANCopt (total)                0 d,  0 h,  0 min,  0.064 sec
 optimizer setup                ...        0 min,  0.000 sec (  0.760%)
 model hessian                  ...        0 min,  0.019 sec ( 29.220%)
 ANC generation                 ...        0 min,  0.000 sec (  0.562%)
 coordinate transformation      ...        0 min,  0.000 sec (  0.115%)
 single point calculation       ...        0 min,  0.042 sec ( 66.174%)
 optimization log               ...        0 min,  0.000 sec (  0.586%)
 hessian update                 ...        0 min,  0.000 sec (  0.064%)
 rational function              ...        0 min,  0.001 sec (  1.042%)

================
 final structure:
================
18
 xtb: 6.4.0 (d4b70c2)
C         2.36154403162779   -1.25301275011661   -0.20153840822370
C         3.03962230480486    0.00009312898331    0.34534893874698
C         0.87285671251926    1.25520589484177    0.14938801035168
H         0.25763777294779   -0.00005517745922   -1.50026157877019
C         2.36128996735845    1.25305207327887   -0.20158460914489
H         0.39005366127226    2.14406363642870   -0.26234634069680
H         0.75019025940908    1.27592125943269    1.23503773421059
C         0.87309257883777   -1.25534998226049    0.14933564926439
H         2.97794557955104    0.00009994865496    1.43576432789076
H         4.09521383168877    0.00018244065551    0.06890370421949
C         0.22879399032650   -0.00011159464360   -0.40850598935300
H         0.75036681043491   -1.27612875273338    1.23497283246904
H         0.39042582815772   -2.14425568329277   -0.26246130146581
H         2.47733627120471    1.28664727507144   -1.28728573162916
H         2.82898302060750    2.14669059634809    0.21401645295049
H         2.47766031086241   -1.28671978219707   -1.28722315431479
H         2.82935380068529   -2.14654206987757    0.21415911505342
Br       -1.72311543769611    0.00010339778537    0.02357259474151
 
 Bond Distances (Angstroems)
 ---------------------------
C1-C2=1.5262         C1-C8=1.5293         C1-H16=1.0924        C1-H17=1.0909        C2-C1=1.5262         C2-C5=1.5262         
C2-H9=1.0922         C2-H10=1.0912        C3-C5=1.5293         C3-H6=1.0921         C3-H7=1.0928         C3-C11=1.5172        
H4-C11=1.0921        C5-C2=1.5262         C5-C3=1.5293         C5-H14=1.0924        C5-H15=1.0909        H6-C3=1.0921         
H7-C3=1.0928         C8-C1=1.5293         C8-C11=1.5172        C8-H12=1.0927        C8-H13=1.0921        H9-C2=1.0922         
H10-C2=1.0912        C11-C3=1.5172        C11-H4=1.0921        C11-C8=1.5172        C11-Br18=1.9992      H12-C8=1.0927        
H13-C8=1.0921        H14-C5=1.0924        H15-C5=1.0909        H16-C1=1.0924        H17-C1=1.0909        Br18-C11=1.9992      
 C  H  Rav=1.0920 sigma=0.0006  Rmin=1.0909  Rmax=1.0928    11
 C  C  Rav=1.5242 sigma=0.0051  Rmin=1.5172  Rmax=1.5293     6
 Br C  Rav=1.9992 sigma=0.0000  Rmin=1.9992  Rmax=1.9992     1
 
 selected bond angles (degree)
 --------------------
C8-C1-C2=110.58                H16-C1-C2=109.53               H16-C1-C8=109.36               H17-C1-C2=110.21               
H17-C1-C8=109.19               H17-C1-H16=107.93              C5-C2-C1=110.38                H9-C2-C1=109.43                
H9-C2-C5=109.43                H10-C2-C1=109.82               H10-C2-C5=109.82               H10-C2-H9=107.91               
H6-C3-C5=110.18                H7-C3-C5=109.71                H7-C3-H6=108.03                C11-C3-C5=109.12               
C11-C3-H6=110.31               C11-C3-H7=109.47               C3-C5-C2=110.58                H14-C5-C2=109.52               
H14-C5-C3=109.36               H15-C5-C2=110.21               H15-C5-C3=109.19               H15-C5-H14=107.93              
C11-C8-C1=109.13               H12-C8-C1=109.71               H12-C8-C11=109.47              H13-C8-C1=110.18               
H13-C8-C11=110.31              H13-C8-H12=108.03              
 
 selected dihedral angles (degree)
 ---------------------------------
C5-C2-C1-C8=302.50            C5-C2-C1-H16= 63.08           C5-C2-C1-H17=181.68           H9-C2-C1-C8= 62.99            
H9-C2-C1-H16=183.57           H9-C2-C1-H17=302.17           H10-C2-C1-C8=181.27           H10-C2-C1-H16=301.86          
H10-C2-C1-H17= 60.45          C3-C5-C2-C1= 57.51            C3-C5-C2-H9=297.02            C3-C5-C2-H10=178.73           
H14-C5-C2-C1=296.92           H14-C5-C2-H9=176.43           H14-C5-C2-H10= 58.15          H15-C5-C2-C1=178.33           
H15-C5-C2-H9= 57.84           H15-C5-C2-H10=299.55          C2-C5-C3-H6=181.15            C2-C5-C3-H7= 62.34            
C2-C5-C3-C11=302.40           H14-C5-C3-H6=301.83           H14-C5-C3-H7=183.02           H14-C5-C3-C11= 63.09          
H15-C5-C3-H6= 59.72           H15-C5-C3-H7=300.91           H15-C5-C3-C11=180.98          C11-C8-C1-C2= 57.59           
C11-C8-C1-H16=296.91          C11-C8-C1-H17=179.02          H12-C8-C1-C2=297.65           H12-C8-C1-H16=176.97          
H12-C8-C1-H17= 59.08          H13-C8-C1-C2=178.84           H13-C8-C1-H16= 58.16          H13-C8-C1-H17=300.27          
           -------------------------------------------------
          |                Final Singlepoint                |
           -------------------------------------------------

          ...................................................
          :                      SETUP                      :
          :.................................................:
          :  # basis functions                  45          :
          :  # atomic orbitals                  44          :
          :  # shells                           26          :
          :  # electrons                        42          :
          :  max. iterations                   250          :
          :  Hamiltonian                  GFN2-xTB          :
          :  restarted?                      false          :
          :  GBSA solvation                   true          :
          :  PC potential                    false          :
          :  electronic temp.          300.0000000     K    :
          :  accuracy                    1.0000000          :
          :  -> integral cutoff          0.2500000E+02      :
          :  -> integral neglect         0.1000000E-07      :
          :  -> SCF convergence          0.1000000E-05 Eh   :
          :  -> wf. convergence          0.1000000E-03 e    :
          :  Broyden damping             0.4000000          :
          ...................................................

 iter      E             dE          RMSdq      gap      omega  full diag
   1    -22.8455899 -0.228456E+02  0.107E-04    4.99       0.0  T
   2    -22.8455899 -0.143459E-10  0.818E-05    4.99     288.2  T
   3    -22.8455899 -0.112159E-10  0.547E-05    4.99     431.2  T

   *** convergence criteria satisfied after 3 iterations ***

         #    Occupation            Energy/Eh            Energy/eV
      -------------------------------------------------------------
         1        2.0000           -0.8329696             -22.6663
       ...           ...                  ...                  ...
        15        2.0000           -0.4574223             -12.4471
        16        2.0000           -0.4499273             -12.2431
        17        2.0000           -0.4319378             -11.7536
        18        2.0000           -0.4288355             -11.6692
        19        2.0000           -0.4286397             -11.6639
        20        2.0000           -0.4027591             -10.9596
        21        2.0000           -0.4023629             -10.9489 (HOMO)
        22                         -0.2190930              -5.9618 (LUMO)
        23                          0.0282792               0.7695
        24                          0.0406293               1.1056
        25                          0.0488359               1.3289
        26                          0.0515596               1.4030
       ...                                ...                  ...
        44                          0.3486643               9.4876
      -------------------------------------------------------------
                  HL-Gap            0.1832700 Eh            4.9870 eV
             Fermi-level           -0.3107280 Eh           -8.4553 eV

 SCC (total)                   0 d,  0 h,  0 min,  0.013 sec
 SCC setup                      ...        0 min,  0.001 sec (  4.485%)
 Dispersion                     ...        0 min,  0.000 sec (  0.591%)
 classical contributions        ...        0 min,  0.000 sec (  0.215%)
 integral evaluation            ...        0 min,  0.003 sec ( 20.281%)
 iterations                     ...        0 min,  0.002 sec ( 18.770%)
 molecular gradient             ...        0 min,  0.005 sec ( 42.863%)
 printout                       ...        0 min,  0.002 sec ( 12.112%)

         :::::::::::::::::::::::::::::::::::::::::::::::::::::
         ::                     SUMMARY                     ::
         :::::::::::::::::::::::::::::::::::::::::::::::::::::
         :: total energy             -22.576339788147 Eh    ::
         :: total w/o Gsasa/hb       -22.568725485988 Eh    ::
         :: gradient norm              0.000632146010 Eh/a0 ::
         :: HOMO-LUMO gap              4.987030049311 eV    ::
         ::.................................................::
         :: SCC energy               -22.845589947195 Eh    ::
         :: -> isotropic ES            0.011125111578 Eh    ::
         :: -> anisotropic ES          0.002352536280 Eh    ::
         :: -> anisotropic XC          0.009224961208 Eh    ::
         :: -> dispersion             -0.013407391674 Eh    ::
         :: -> Gsolv                  -0.009858408576 Eh    ::
         ::    -> Gborn               -0.002244106418 Eh    ::
         ::    -> Gsasa               -0.010220342136 Eh    ::
         ::    -> Ghb                 -0.000750889545 Eh    ::
         ::    -> Gshift               0.003356929523 Eh    ::
         :: repulsion energy           0.269207088998 Eh    ::
         :: add. restraining           0.000000000000 Eh    ::
         :: total charge               0.000000000000 e     ::
         :::::::::::::::::::::::::::::::::::::::::::::::::::::

           ------------------------------------------------- 
          |                Numerical Hessian                |
           ------------------------------------------------- 
step length          :   0.00500
SCC accuracy         :   0.30000
Hessian scale factor :   1.00000
frozen atoms in %    :   0.00000    0
RMS gradient         :   0.00063
estimated CPU  time      0.04 min
estimated wall time      0.02 min

writing file <hessian>.

 projected vibrational frequencies (cm⁻¹)
eigval :       -0.00    -0.00    -0.00     0.00     0.00     0.00
eigval :      125.44   207.16   228.39   239.13   315.52   419.39
eigval :      428.59   499.65   671.60   821.04   854.65   893.93
eigval :      930.07   930.12   966.88   987.88  1063.86  1084.64
eigval :     1104.54  1134.05  1134.67  1196.93  1204.62  1239.60
eigval :     1240.05  1252.81  1290.98  1331.37  1336.10  1338.95
eigval :     1347.85  1352.90  1475.87  1481.15  1483.41  1486.26
eigval :     1498.67  2949.77  2964.38  2964.81  2970.87  2972.73
eigval :     2979.89  2982.22  2983.37  2985.18  2991.50  2996.10
           -------------------------------------------------
          |                Property Printout                |
           -------------------------------------------------

    * Orbital Energies and Occupations

         #    Occupation            Energy/Eh            Energy/eV
      -------------------------------------------------------------
         1        2.0000           -0.8329694             -22.6663
       ...           ...                  ...                  ...
         9        2.0000           -0.5158781             -14.0378
        10        2.0000           -0.5131325             -13.9630
        11        2.0000           -0.5026657             -13.6782
        12        2.0000           -0.4887865             -13.3006
        13        2.0000           -0.4785643             -13.0224
        14        2.0000           -0.4778109             -13.0019
        15        2.0000           -0.4574218             -12.4471
        16        2.0000           -0.4499268             -12.2431
        17        2.0000           -0.4319374             -11.7536
        18        2.0000           -0.4288351             -11.6692
        19        2.0000           -0.4286393             -11.6639
        20        2.0000           -0.4027587             -10.9596
        21        2.0000           -0.4023625             -10.9488 (HOMO)
        22                         -0.2190922              -5.9618 (LUMO)
        23                          0.0282795               0.7695
        24                          0.0406296               1.1056
        25                          0.0488362               1.3289
        26                          0.0515599               1.4030
        27                          0.0762919               2.0760
        28                          0.0816417               2.2216
        29                          0.0892048               2.4274
        30                          0.1065030               2.8981
        31                          0.1236429               3.3645
        32                          0.1344768               3.6593
       ...                                ...                  ...
        44                          0.3486647               9.4876
      -------------------------------------------------------------
                  HL-Gap            0.1832704 Eh            4.9870 eV
             Fermi-level           -0.3107274 Eh           -8.4553 eV

     #   Z          covCN         q      C6AA      α(0)
     1   6 C        3.807    -0.061    21.664     6.626
     2   6 C        3.805    -0.063    21.705     6.632
     3   6 C        3.862    -0.056    21.531     6.599
     4   1 H        0.925     0.055     2.261     2.352
     5   6 C        3.807    -0.061    21.664     6.626
     6   1 H        0.924     0.043     2.413     2.429
     7   1 H        0.924     0.049     2.337     2.391
     8   6 C        3.862    -0.056    21.531     6.599
     9   1 H        0.924     0.041     2.432     2.439
    10   1 H        0.924     0.041     2.439     2.442
    11   6 C        3.795     0.070    19.414     6.274
    12   1 H        0.924     0.049     2.337     2.391
    13   1 H        0.924     0.043     2.413     2.429
    14   1 H        0.924     0.039     2.464     2.455
    15   1 H        0.924     0.045     2.388     2.417
    16   1 H        0.924     0.039     2.464     2.455
    17   1 H        0.924     0.045     2.388     2.417
    18  35 Br       1.023    -0.261   192.338    22.361

 Mol. C6AA /au·bohr⁶  :       3415.285585
 Mol. C8AA /au·bohr⁸  :     100872.114242
 Mol. α(0) /au        :         88.332507


Wiberg/Mayer (AO) data.
largest (>0.10) Wiberg bond orders for each atom

 ---------------------------------------------------------------------------
     #   Z sym  total        # sym  WBO       # sym  WBO       # sym  WBO
 ---------------------------------------------------------------------------
     1   6 C    3.996 --     2 C    1.010     8 C    0.996    16 H    0.977
                            17 H    0.975
     2   6 C    3.997 --     1 C    1.010     5 C    1.010     9 H    0.977
                            10 H    0.976
     3   6 C    3.994 --    11 C    1.010     5 C    0.996     6 H    0.976
                             7 H    0.975
     4   1 H    0.997 --    11 C    0.968
     5   6 C    3.996 --     2 C    1.010     3 C    0.996    14 H    0.977
                            15 H    0.975
     6   1 H    0.998 --     3 C    0.976
     7   1 H    0.998 --     3 C    0.975
     8   6 C    3.994 --    11 C    1.010     1 C    0.996    13 H    0.976
                            12 H    0.975
     9   1 H    0.998 --     2 C    0.977
    10   1 H    0.997 --     2 C    0.976
    11   6 C    3.931 --     3 C    1.010     8 C    1.010     4 H    0.968
                            18 Br   0.908
    12   1 H    0.998 --     8 C    0.975
    13   1 H    0.998 --     8 C    0.976
    14   1 H    0.998 --     5 C    0.977
    15   1 H    0.998 --     5 C    0.975
    16   1 H    0.998 --     1 C    0.977
    17   1 H    0.998 --     1 C    0.975
    18  35 Br   0.984 --    11 C    0.908
 ---------------------------------------------------------------------------

Topologies differ in total number of bonds
Writing topology from bond orders to xtbtopo.mol

molecular dipole:
                 x           y           z       tot (Debye)
 q only:        1.408      -0.000      -0.098
   full:        1.834      -0.000      -0.248       4.703
molecular quadrupole (traceless):
                xx          xy          yy          xz          yz          zz
 q only:       -1.471      -0.000       1.358       0.192       0.000       0.112
  q+dip:       -7.200      -0.001       2.901       0.863       0.000       4.299
   full:       -5.508      -0.000       2.608       0.519       0.000       2.900

           -------------------------------------------------
          |                Geometry Summary                 |
           -------------------------------------------------

      molecular mass/u    :      163.0552914
   center of mass at/Å    :       -0.0021238       0.0000410      -0.0020068
  moments of inertia/u·Å² :        0.1167329E+03   0.5729497E+03   0.6577042E+03
rotational constants/cm⁻¹ :        0.1444120E+00   0.2942254E-01   0.2563102E-01

 * 17 selected distances

     #   Z          #   Z                                           value/Å
     1   6 C        2   6 C                                       1.5261554
     2   6 C        5   6 C                                       1.5261642
     3   6 C        5   6 C                                       1.5292547 (max)
     3   6 C        6   1 H                                       1.0921044
     3   6 C        7   1 H                                       1.0927541
     1   6 C        8   6 C                                       1.5292501
     2   6 C        9   1 H                                       1.0921583
     2   6 C       10   1 H                                       1.0911899
     3   6 C       11   6 C                                       1.5171963
     4   1 H       11   6 C                                       1.0921365
     8   6 C       11   6 C                                       1.5172117
     8   6 C       12   1 H                                       1.0927495
     8   6 C       13   1 H                                       1.0921068
     5   6 C       14   1 H                                       1.0924021
     5   6 C       15   1 H                                       1.0908945
     1   6 C       16   1 H                                       1.0923967
     1   6 C       17   1 H                                       1.0908919 (min)

 * 2 distinct bonds (by element types)

   Z      Z             #   av. dist./Å        max./Å        min./Å
   1 H    6 C          11     1.0919804     1.0927541     1.0908919
   6 C    6 C           6     1.5242054     1.5292547     1.5171963

           -------------------------------------------------
          |               Frequency Printout                |
           -------------------------------------------------
 projected vibrational frequencies (cm⁻¹)
eigval :       -0.00    -0.00    -0.00     0.00     0.00     0.00
eigval :      125.44   207.16   228.39   239.13   315.52   419.39
eigval :      428.59   499.65   671.60   821.04   854.65   893.93
eigval :      930.07   930.12   966.88   987.88  1063.86  1084.64
eigval :     1104.54  1134.05  1134.67  1196.93  1204.62  1239.60
eigval :     1240.05  1252.81  1290.98  1331.37  1336.10  1338.95
eigval :     1347.85  1352.90  1475.87  1481.15  1483.41  1486.26
eigval :     1498.67  2949.77  2964.38  2964.81  2970.87  2972.73
eigval :     2979.89  2982.22  2983.37  2985.18  2991.50  2996.10
 reduced masses (amu)
   1: 10.59   2: 32.01   3: 38.82   4: 41.48   5: 20.18   6: 73.01   7: 15.59   8: 19.36
   9:  6.88  10: 42.18  11:  6.99  12:  8.15  13:  9.53  14:  7.45  15: 10.02  16:  4.36
  17:  7.55  18:  6.36  19:  7.40  20:  3.73  21:  7.53  22:  7.32  23:  1.51  24:  6.82
  25:  5.35  26:  7.76  27:  6.22  28:  4.34  29:  4.16  30:  3.17  31:  3.85  32:  3.41
  33:  3.61  34:  4.25  35:  4.68  36:  4.39  37:  4.92  38:  5.23  39:  1.89  40:  1.92
  41:  2.05  42:  1.95  43:  2.03  44:  1.77  45:  1.90  46:  1.84  47:  1.98  48:  2.00
  49:  1.92  50:  1.49  51:  1.59  52:  1.52  53:  1.57  54:  1.58
 IR intensities (km·mol⁻¹)
   1:  0.19   2:  0.33   3:  1.12   4:  0.04   5:  0.73   6:  0.69   7:  1.91   8:  3.19
   9:  0.24  10:  0.26  11:  0.20  12:  0.69  13:  0.21  14:  1.74  15:  5.28  16:  0.70
  17:  2.89  18:  3.01  19:  7.41  20:  8.25  21:  2.33  22: 11.87  23:  0.03  24:  3.34
  25:  1.66  26:  0.07  27:  5.18  28:  0.04  29: 27.79  30: 11.33  31:  3.93  32:  2.03
  33:  1.10  34:  3.97  35:  1.80  36:  5.38  37: 12.06  38:  0.11  39:  0.05  40:  0.41
  41:  0.02  42:  0.55  43:  0.06  44:  7.18  45: 14.77  46:  6.44  47: 15.82  48:  2.22
  49:123.77  50:  3.98  51:185.39  52: 59.99  53:126.36  54: 48.16
 Raman intensities (amu)
   1:  0.00   2:  0.00   3:  0.00   4:  0.00   5:  0.00   6:  0.00   7:  0.00   8:  0.00
   9:  0.00  10:  0.00  11:  0.00  12:  0.00  13:  0.00  14:  0.00  15:  0.00  16:  0.00
  17:  0.00  18:  0.00  19:  0.00  20:  0.00  21:  0.00  22:  0.00  23:  0.00  24:  0.00
  25:  0.00  26:  0.00  27:  0.00  28:  0.00  29:  0.00  30:  0.00  31:  0.00  32:  0.00
  33:  0.00  34:  0.00  35:  0.00  36:  0.00  37:  0.00  38:  0.00  39:  0.00  40:  0.00
  41:  0.00  42:  0.00  43:  0.00  44:  0.00  45:  0.00  46:  0.00  47:  0.00  48:  0.00
  49:  0.00  50:  0.00  51:  0.00  52:  0.00  53:  0.00  54:  0.00
 output can be read by thermo (or use thermo option).
 writing <g98.out> molden fake output.
 recommended (thermochemical) frequency scaling factor: 1.0
           -------------------------------------------------
          |             Thermodynamic Functions             |
           -------------------------------------------------

Molecule has the following symmetry elements: (sigma) 
It seems to be the Cs point group
cs  symmetry found (for desy threshold:  0.10E+00) used in thermo

          ...................................................
          :                      SETUP                      :
          :.................................................:
          :  # frequencies                          48      :
          :  # imaginary freq.                       0      :
          :  linear?                             false      :
          :  only rotor calc.                    false      :
          :  symmetry                               cs      :
          :  rotational number                       1      :
          :  scaling factor                  1.0000000      :
          :  rotor cutoff                   50.0000000 cm⁻¹ :
          :  imag. cutoff                  -20.0000000 cm⁻¹ :
          :.................................................:

    mode    ω/cm⁻¹     T·S(HO)/kcal·mol⁻¹    T·S(FR)/kcal·mol⁻¹   T·S(vib)
   ------------------------------------------------------------------------
       1    125.44    -0.89886 ( 97.54%)    -0.78398 (  2.46%)    -0.89603
       2    207.16    -0.61675 ( 99.66%)    -0.63540 (  0.34%)    -0.61681
       3    228.39    -0.56397 ( 99.77%)    -0.60650 (  0.23%)    -0.56406
       4    239.13    -0.53946 ( 99.81%)    -0.59290 (  0.19%)    -0.53957
   ------------------------------------------------------------------------

   temp. (K)  partition function   enthalpy   heat capacity  entropy
                                   cal/mol     cal/K/mol   cal/K/mol   J/K/mol
 298.15  VIB   16.9                 2655.888     20.890     14.522
         ROT  0.507E+06              888.752      2.981     29.085
         INT  0.858E+07             3544.641     23.871     43.606
         TR   0.201E+28             1481.254      4.968     41.157
         TOT                        5025.8945    28.8392    84.7631   354.6490

       T/K    H(0)-H(T)+PV         H(T)/Eh          T*S/Eh         G(T)/Eh
   ------------------------------------------------------------------------
    298.15    0.800927E-02    0.165976E+00    0.402737E-01    0.125703E+00
   ------------------------------------------------------------------------

         :::::::::::::::::::::::::::::::::::::::::::::::::::::
         ::                  THERMODYNAMIC                  ::
         :::::::::::::::::::::::::::::::::::::::::::::::::::::
         :: total free energy         -22.450637173135 Eh   ::
         ::.................................................::
         :: total energy              -22.576339787329 Eh   ::
         :: zero point energy           0.157967044435 Eh   ::
         :: G(RRHO) w/o ZPVE           -0.032264430241 Eh   ::
         :: G(RRHO) contrib.            0.125702614193 Eh   ::
         :::::::::::::::::::::::::::::::::::::::::::::::::::::

optimized geometry written to: xtbopt.xyz


           -------------------------------------------------
          | TOTAL ENERGY              -22.576339787329 Eh   |
          | TOTAL ENTHALPY            -22.410363470266 Eh   |
          | TOTAL FREE ENERGY         -22.450637173135 Eh   |
          | GRADIENT NORM               0.000631796102 Eh/α |
          | HOMO-LUMO GAP               4.987040144479 eV   |
           -------------------------------------------------

------------------------------------------------------------------------
 * finished run on 2021/11/09 at 16:17:31.153     
------------------------------------------------------------------------
 total:
 * wall-time:     0 d,  0 h,  0 min,  0.729 sec
 *  cpu-time:     0 d,  0 h,  0 min,  1.402 sec
 * ratio c/w:     1.923 speedup
 SCF:
 * wall-time:     0 d,  0 h,  0 min,  0.018 sec
 *  cpu-time:     0 d,  0 h,  0 min,  0.034 sec
 * ratio c/w:     1.874 speedup
 ANC optimizer:
 * wall-time:     0 d,  0 h,  0 min,  0.088 sec
 *  cpu-time:     0 d,  0 h,  0 min,  0.157 sec
 * ratio c/w:     1.773 speedup
 numerical hessian:
 * wall-time:     0 d,  0 h,  0 min,  0.578 sec
 *  cpu-time:     0 d,  0 h,  0 min,  1.146 sec
 * ratio c/w:     1.983 speedup

