18
 energy: -22.576333277172 gnorm: 0.001708803599 xtb: 6.4.0 (d4b70c2)
C         2.36160157190000   -1.25312025700000   -0.20167241350000
C         3.03885470750000    0.00015298260000    0.34601517770000
C         0.87287862000000    1.25516950040000    0.14797672270000
H         0.25380863740000   -0.00005425740000   -1.50001190090000
C         2.36139626120000    1.25318846640000   -0.20186124560000
H         0.38958885140000    2.14432797620000   -0.26377004590000
H         0.75049132940000    1.27709621220000    1.23390360170000
C         0.87297552140000   -1.25534341070000    0.14782448500000
H         2.97578845690000    0.00027458120000    1.43666039740000
H         4.09536487230000    0.00018561780000    0.07164097890000
C         0.22626924640000   -0.00008818510000   -0.40778489770000
H         0.75027709910000   -1.27761092280000    1.23371671420000
H         0.38993103410000   -2.14445815960000   -0.26429817090000
H         2.47889356080000    1.28679659430000   -1.28773859530000
H         2.82992613150000    2.14693592010000    0.21383065060000
H         2.47934632870000   -1.28688338950000   -1.28752681210000
H         2.83014744540000   -2.14669259840000    0.21439573870000
Br       -1.71828838080000    0.00000718820000    0.02799186130000
18
 energy: -22.576339090247 gnorm: 0.000960166792 xtb: 6.4.0 (d4b70c2)
C         2.36174448976820   -1.25284253580623   -0.20175455633500
C         3.03960076353082    0.00011581943505    0.34564377184018
C         0.87337061787471    1.25514741763540    0.14917230032181
H         0.25542700171653    0.00002853785684   -1.49855844941617
C         2.36162547611541    1.25294804451308   -0.20187547559683
H         0.39063909928284    2.14405898695321   -0.26282635891420
H         0.75089760584810    1.27687498747309    1.23490517801801
C         0.87343030174626   -1.25518011424396    0.14909268478455
H         2.97731551208286    0.00016849870255    1.43611982267831
H         4.09545415000909    0.00012910326049    0.06992042013180
C         0.22651855366629   -0.00001355528578   -0.40665621939933
H         0.75082123945516   -1.27711975515666    1.23480535363647
H         0.39088374692935   -2.14409765518485   -0.26312381525857
H         2.47799104052468    1.28634744053420   -1.28764466340252
H         2.82963109957884    2.14665334124533    0.21350939910748
H         2.47826235087544   -1.28643353412937   -1.28749437876341
H         2.82977563259436   -2.14643191608753    0.21383508176534
Br       -1.72413738699895   -0.00046925281487    0.02222215110208
18
 energy: -22.576339787511 gnorm: 0.000636363438 xtb: 6.4.0 (d4b70c2)
C         2.36154403162779   -1.25301275011661   -0.20153840822370
C         3.03962230480486    0.00009312898331    0.34534893874698
C         0.87285671251926    1.25520589484177    0.14938801035168
H         0.25763777294779   -0.00005517745922   -1.50026157877019
C         2.36128996735845    1.25305207327887   -0.20158460914489
H         0.39005366127226    2.14406363642870   -0.26234634069680
H         0.75019025940908    1.27592125943269    1.23503773421059
C         0.87309257883777   -1.25534998226049    0.14933564926439
H         2.97794557955104    0.00009994865496    1.43576432789076
H         4.09521383168877    0.00018244065551    0.06890370421949
C         0.22879399032650   -0.00011159464360   -0.40850598935300
H         0.75036681043491   -1.27612875273338    1.23497283246904
H         0.39042582815772   -2.14425568329277   -0.26246130146581
H         2.47733627120471    1.28664727507144   -1.28728573162916
H         2.82898302060750    2.14669059634809    0.21401645295049
H         2.47766031086241   -1.28671978219707   -1.28722315431479
H         2.82935380068529   -2.14654206987757    0.21415911505342
Br       -1.72311543769611    0.00010339778537    0.02357259474151
