
                                 *****************
                                 * O   R   C   A *
                                 *****************

           --- An Ab Initio, DFT and Semiempirical electronic structure package ---

                  #######################################################
                  #                        -***-                        #
                  #          Department of theory and spectroscopy      #
                  #               Directorship: Frank Neese             #
                  #        Max Planck Institute fuer Kohlenforschung    #
                  #                Kaiser Wilhelm Platz 1               #
                  #                 D-45470 Muelheim/Ruhr               #
                  #                      Germany                        #
                  #                                                     #
                  #                  All rights reserved                #
                  #                        -***-                        #
                  #######################################################


                         Program Version 4.2.1 -  RELEASE  -


 With contributions from (in alphabetic order):
   Daniel Aravena         : Magnetic Suceptibility
   Michael Atanasov       : Ab Initio Ligand Field Theory (pilot matlab implementation)
   Alexander A. Auer      : GIAO ZORA, VPT2
   Ute Becker             : Parallelization
   Giovanni Bistoni       : ED, misc. LED, open-shell LED, HFLD
   Martin Brehm           : Molecular dynamics
   Dmytro Bykov           : SCF Hessian
   Vijay G. Chilkuri      : MRCI spin determinant printing, contributions to CSF-ICE
   Dipayan Datta          : RHF DLPNO-CCSD density
   Achintya Kumar Dutta   : EOM-CC, STEOM-CC
   Dmitry Ganyushin       : Spin-Orbit,Spin-Spin,Magnetic field MRCI
   Miquel Garcia          : C-PCM Hessian, Gaussian charge scheme
   Yang Guo               : DLPNO-NEVPT2, CIM, IAO-localization
   Andreas Hansen         : Spin unrestricted coupled pair/coupled cluster methods
   Benjamin Helmich-Paris : CASSCF linear response (MC-RPA)
   Lee Huntington         : MR-EOM, pCC
   Robert Izsak           : Overlap fitted RIJCOSX, COSX-SCS-MP3, EOM
   Christian Kollmar      : KDIIS, OOCD, Brueckner-CCSD(T), CCSD density
   Simone Kossmann        : Meta GGA functionals, TD-DFT gradient, OOMP2, MP2 Hessian
   Martin Krupicka        : AUTO-CI
   Lucas Lang             : DCDCAS
   Dagmar Lenk            : GEPOL surface, SMD
   Dimitrios Liakos       : Extrapolation schemes; Compound Job, initial MDCI parallelization
   Dimitrios Manganas     : Further ROCIS development; embedding schemes
   Dimitrios Pantazis     : SARC Basis sets
   Taras Petrenko         : DFT Hessian,TD-DFT gradient, ASA, ECA, R-Raman, ABS, FL, XAS/XES, NRVS
   Peter Pinski           : DLPNO-MP2, DLPNO-MP2 Gradient
   Christoph Reimann      : Effective Core Potentials
   Marius Retegan         : Local ZFS, SOC
   Christoph Riplinger    : Optimizer, TS searches, QM/MM, DLPNO-CCSD(T), (RO)-DLPNO pert. Triples
   Tobias Risthaus        : Range-separated hybrids, TD-DFT gradient, RPA, STAB
   Michael Roemelt        : Original ROCIS implementation
   Masaaki Saitow         : Open-shell DLPNO-CCSD energy and density
   Barbara Sandhoefer     : DKH picture change effects
   Avijit Sen             : IP-ROCIS
   Kantharuban Sivalingam : CASSCF convergence, NEVPT2, FIC-MRCI
   Bernardo de Souza      : ESD, SOC TD-DFT
   Georgi Stoychev        : AutoAux, RI-MP2 NMR
   Willem Van den Heuvel  : Paramagnetic NMR
   Boris Wezisla          : Elementary symmetry handling
   Frank Wennmohs         : Technical directorship


 We gratefully acknowledge several colleagues who have allowed us to
 interface, adapt or use parts of their codes:
   Stefan Grimme, W. Hujo, H. Kruse,             : VdW corrections, initial TS optimization,
                  C. Bannwarth                     DFT functionals, gCP, sTDA/sTD-DF
   Ed Valeev, F. Pavosevic, A. Kumar             : LibInt (2-el integral package), F12 methods
   Garnet Chan, S. Sharma, J. Yang, R. Olivares  : DMRG
   Ulf Ekstrom                                   : XCFun DFT Library
   Mihaly Kallay                                 : mrcc  (arbitrary order and MRCC methods)
   Andreas Klamt, Michael Diedenhofen            : otool_cosmo (COSMO solvation model)
   Jiri Pittner, Ondrej Demel                    : Mk-CCSD
   Frank Weinhold                                : gennbo (NPA and NBO analysis)
   Christopher J. Cramer and Donald G. Truhlar   : smd solvation model
   Lars Goerigk                                  : TD-DFT with DH, B97 family of functionals
   V. Asgeirsson, H. Jonsson                     : NEB implementation
   FAccTs GmbH                                   : IRC, NEB, NEB-TS, Multilevel, MM, QM/MM, CI optimization
   S Lehtola, MJT Oliveira, MAL Marques          : LibXC Library


 Your calculation uses the libint2 library for the computation of 2-el integrals
 For citations please refer to: http://libint.valeyev.net

 Your ORCA version has been built with support for libXC version: 4.2.3
 For citations please refer to: https://tddft.org/programs/libxc/

 This ORCA versions uses:
   CBLAS   interface :  Fast vector & matrix operations
   LAPACKE interface :  Fast linear algebra routines
   SCALAPACK package :  Parallel linear algebra routines




***************************************
The coordinates will be read from file: init.xyz
***************************************


Your calculation utilizes the SMD solvation module
Please cite in your paper:
A.V. Marenich, C.J. Cramer, D.G. Truhlar J. Phys. Chem. B, 113, (2009), 6378 

Your calculation utilizes the semiempirical GFN2-xTB method
Please cite in your paper:
C. Bannwarth, Ehlert S., S. Grimme,  J. Chem. Theory Comput., 15, (2019), 1652.
   

----- Orbital basis set information -----
Your calculation utilizes the basis: def2-SVP
   F. Weigend and R. Ahlrichs, Phys. Chem. Chem. Phys. 7, 3297 (2005).

================================================================================
                                        WARNINGS
                       Please study these warnings very carefully!
================================================================================


WARNING: The environment variable RSH_COMMAND is not set!
  ===> : All Displacements for the Numerical Hessian calculation
         will be started on localhost

WARNING: Geometry Optimization
  ===> : Switching off AutoStart
         For restart on a previous wavefunction, please use MOREAD

WARNING: Found dipole moment calculation with XTB calculation
  ===> : Switching off dipole moment calculation


INFO   : the flag for use of LIBINT has been found!

================================================================================
                                       INPUT FILE
================================================================================
NAME = opt+numfreq.inp
|  1> ! xTB2 Opt NumFreq
|  2> 
|  3> *xyzfile 0 1 init.xyz
|  4> 
|  5> %cpcm
|  6>  smd true
|  7>  SMDsolvent "METHANOL"
|  8> end
|  9> 
| 10> %pal
| 11>  nprocs 2
| 12> end
| 13> 
| 14>                          ****END OF INPUT****
================================================================================

                       *****************************
                       * Geometry Optimization Run *
                       *****************************

Geometry optimization settings:
Update method            Update   .... BFGS
Choice of coordinates    CoordSys .... Z-matrix Internals
Initial Hessian          InHess   .... Almoef's Model

Convergence Tolerances:
Energy Change            TolE     ....  5.0000e-06 Eh
Max. Gradient            TolMAXG  ....  3.0000e-04 Eh/bohr
RMS Gradient             TolRMSG  ....  1.0000e-04 Eh/bohr
Max. Displacement        TolMAXD  ....  4.0000e-03 bohr
RMS Displacement         TolRMSD  ....  2.0000e-03 bohr
Strict Convergence                ....  False
------------------------------------------------------------------------------
                        ORCA OPTIMIZATION COORDINATE SETUP
------------------------------------------------------------------------------

The optimization will be done in new redundant internal coordinates
Making redundant internal coordinates   ...  (new redundants) done
Evaluating the initial hessian          ...  (Almloef) done
Evaluating the coordinates              ...  done
Calculating the B-matrix                .... done
Calculating the G-matrix                .... done
Diagonalizing the G-matrix              .... done
The first mode is                       ....   60
The number of degrees of freedom        ....   48

    -----------------------------------------------------------------
                    Redundant Internal Coordinates


    -----------------------------------------------------------------
         Definition                    Initial Value    Approx d2E/dq
    -----------------------------------------------------------------
      1. B(C   1,C   0)                  1.5348         0.367101   
      2. B(C   4,C   2)                  1.5370         0.364064   
      3. B(C   4,C   1)                  1.5251         0.380324   
      4. B(H   5,C   2)                  1.0922         0.357157   
      5. B(H   6,C   2)                  1.0920         0.357517   
      6. B(C   7,C   0)                  1.5372         0.363854   
      7. B(H   8,C   1)                  1.0910         0.358717   
      8. B(H   9,C   1)                  1.0921         0.357308   
      9. B(C  10,C   7)                  1.5165         0.392611   
     10. B(C  10,H   3)                  1.0915         0.358120   
     11. B(C  10,C   2)                  1.5257         0.379556   
     12. B(H  11,C   7)                  1.0921         0.357333   
     13. B(H  12,C   7)                  1.0918         0.357777   
     14. B(H  13,C   4)                  1.0908         0.359082   
     15. B(H  14,C   4)                  1.0913         0.358336   
     16. B(H  15,C   0)                  1.0915         0.358136   
     17. B(H  16,C   0)                  1.0911         0.358674   
     18. B(Br 17,C  10)                  1.9911         0.230814   
     19. A(H  15,C   0,H  16)          107.4933         0.290409   
     20. A(C   1,C   0,H  16)          109.9536         0.323179   
     21. A(C   1,C   0,C   7)          111.7519         0.360642   
     22. A(C   7,C   0,H  16)          108.5151         0.322709   
     23. A(C   7,C   0,H  15)          109.7263         0.322629   
     24. A(C   1,C   0,H  15)          109.3032         0.323100   
     25. A(C   0,C   1,H   8)          109.6810         0.323186   
     26. A(H   8,C   1,H   9)          107.3759         0.290309   
     27. A(C   4,C   1,H   9)          109.0156         0.324858   
     28. A(C   0,C   1,H   9)          110.2635         0.322977   
     29. A(C   4,C   1,H   8)          110.0392         0.325069   
     30. A(C   0,C   1,C   4)          110.4123         0.363378   
     31. A(C   4,C   2,H   5)          110.4742         0.322515   
     32. A(C   4,C   2,C  10)          110.5165         0.362737   
     33. A(H   6,C   2,C  10)          110.0208         0.324782   
     34. A(H   5,C   2,H   6)          107.4528         0.290137   
     35. A(C   4,C   2,H   6)          109.0741         0.322568   
     36. A(H   5,C   2,C  10)          109.2502         0.324728   
     37. A(H  13,C   4,H  14)          107.5387         0.290486   
     38. A(C   1,C   4,H  14)          108.8367         0.325012   
     39. A(C   2,C   4,H  13)          109.2998         0.322799   
     40. A(C   1,C   4,H  13)          110.3644         0.325123   
     41. A(C   2,C   4,H  14)          109.9979         0.322689   
     42. A(C   1,C   4,C   2)          110.7453         0.362862   
     43. A(H  11,C   7,H  12)          107.5841         0.290192   
     44. A(C  10,C   7,H  12)          110.6477         0.326633   
     45. A(C   0,C   7,H  12)          109.9438         0.322576   
     46. A(C  10,C   7,H  11)          108.9434         0.326566   
     47. A(C   0,C   7,H  11)          110.5977         0.322511   
     48. A(C   0,C   7,C  10)          109.1112         0.364804   
     49. A(C   2,C  10,H   3)          111.4953         0.324872   
     50. A(C   7,C  10,Br 17)          110.2251         0.358946   
     51. A(H   3,C  10,C   7)          110.1393         0.326684   
     52. A(H   3,C  10,Br 17)          103.4628         0.317665   
     53. A(C   2,C  10,Br 17)          109.8754         0.356888   
     54. A(C   2,C  10,C   7)          111.3708         0.367454   
     55. D(H   9,C   1,C   0,H  15)     32.5737         0.010784   
     56. D(H   8,C   1,C   0,H  15)    -85.4699         0.010784   
     57. D(H   8,C   1,C   0,C   7)    152.8753         0.010784   
     58. D(C   4,C   1,C   0,H  16)    -89.1217         0.010784   
     59. D(H   9,C   1,C   0,H  16)    150.3488         0.010784   
     60. D(C   4,C   1,C   0,C   7)     31.4483         0.010784   
     61. D(C   4,C   1,C   0,H  15)    153.1031         0.010784   
     62. D(H   9,C   1,C   0,C   7)    -89.0812         0.010784   
     63. D(H   8,C   1,C   0,H  16)     32.3053         0.010784   
     64. D(H  13,C   4,C   1,H   8)     52.2152         0.011527   
     65. D(C   1,C   4,C   2,C  10)     30.1767         0.010617   
     66. D(H  13,C   4,C   2,H   5)     30.9446         0.010617   
     67. D(H  13,C   4,C   2,C  10)    151.9741         0.010617   
     68. D(H  13,C   4,C   1,H   9)    -65.2969         0.011527   
     69. D(H  13,C   4,C   1,C   0)    173.4296         0.011527   
     70. D(C   2,C   4,C   1,H   9)     55.8735         0.011527   
     71. D(C   2,C   4,C   1,C   0)    -65.4001         0.011527   
     72. D(C   1,C   4,C   2,H   6)    151.2528         0.010617   
     73. D(C   1,C   4,C   2,H   5)    -90.8527         0.010617   
     74. D(H  14,C   4,C   2,H   6)     30.9045         0.010617   
     75. D(H  14,C   4,C   2,H   5)    148.7989         0.010617   
     76. D(H  13,C   4,C   2,H   6)    -86.9498         0.010617   
     77. D(H  14,C   4,C   1,H   9)    176.9114         0.011527   
     78. D(C   2,C   4,C   1,H   8)    173.3856         0.011527   
     79. D(H  14,C   4,C   1,H   8)    -65.5765         0.011527   
     80. D(H  14,C   4,C   1,C   0)     55.6379         0.011527   
     81. D(H  14,C   4,C   2,C  10)    -90.1716         0.010617   
     82. D(H  11,C   7,C   0,C   1)    -88.3193         0.010606   
     83. D(C  10,C   7,C   0,H  16)    152.9052         0.010606   
     84. D(C  10,C   7,C   0,H  15)    -89.9110         0.010606   
     85. D(C  10,C   7,C   0,C   1)     31.4995         0.010606   
     86. D(H  12,C   7,C   0,H  16)    -85.5793         0.010606   
     87. D(H  12,C   7,C   0,H  15)     31.6044         0.010606   
     88. D(H  12,C   7,C   0,C   1)    153.0149         0.010606   
     89. D(H  11,C   7,C   0,H  16)     33.0865         0.010606   
     90. D(H  11,C   7,C   0,H  15)    150.2702         0.010606   
     91. D(Br 17,C  10,C   7,H  12)     48.9510         0.012248   
     92. D(Br 17,C  10,C   7,H  11)    -69.1264         0.012248   
     93. D(Br 17,C  10,C   7,C   0)    170.0383         0.012248   
     94. D(H   3,C  10,C   7,H  12)    -64.5885         0.012248   
     95. D(H   3,C  10,C   7,H  11)    177.3341         0.012248   
     96. D(H   3,C  10,C   7,C   0)     56.4988         0.012248   
     97. D(C   2,C  10,C   7,H  12)    171.1752         0.012248   
     98. D(C   2,C  10,C   7,H  11)     53.0978         0.012248   
     99. D(C   2,C  10,C   7,C   0)    -67.7375         0.012248   
    100. D(Br 17,C  10,C   2,H   6)     36.0505         0.011483   
    101. D(Br 17,C  10,C   2,H   5)    -81.6832         0.011483   
    102. D(Br 17,C  10,C   2,C   4)    156.5627         0.011483   
    103. D(C   7,C  10,C   2,H   6)    -86.3754         0.011483   
    104. D(C   7,C  10,C   2,H   5)    155.8909         0.011483   
    105. D(C   7,C  10,C   2,C   4)     34.1368         0.011483   
    106. D(H   3,C  10,C   2,H   6)    150.1570         0.011483   
    107. D(H   3,C  10,C   2,H   5)     32.4233         0.011483   
    108. D(H   3,C  10,C   2,C   4)    -89.3309         0.011483   
    -----------------------------------------------------------------

Number of atoms                         .... 18
Number of degrees of freedom            .... 108

         *************************************************************
         *                GEOMETRY OPTIMIZATION CYCLE   1            *
         *************************************************************
      -----------------------------------------------------------      
     |                   =====================                   |     
     |                           x T B                           |     
     |                   =====================                   |     
     |                         S. Grimme                         |     
     |          Mulliken Center for Theoretical Chemistry        |     
     |                    University of Bonn                     |     
      -----------------------------------------------------------      

   * xtb version 6.4.0 (d4b70c2) compiled by 'ehlert@majestix' on 2021-02-01

   xtb is free software: you can redistribute it and/or modify it under
   the terms of the GNU Lesser General Public License as published by
   the Free Software Foundation, either version 3 of the License, or
   (at your option) any later version.
   
   xtb is distributed in the hope that it will be useful,
   but WITHOUT ANY WARRANTY; without even the implied warranty of
   MERCHANTABILITY or FITNESS FOR A PARTICULAR PURPOSE.  See the
   GNU Lesser General Public License for more details.
   
   Cite this work as:
   * C. Bannwarth, E. Caldeweyher, S. Ehlert, A. Hansen, P. Pracht,
     J. Seibert, S. Spicher, S. Grimme, WIREs Comput. Mol. Sci., 2020,
     e01493. DOI: 10.1002/wcms.1493
   
   for GFN2-xTB:
   * C. Bannwarth, S. Ehlert and S. Grimme., J. Chem. Theory Comput., 2019,
     15, 1652-1671. DOI: 10.1021/acs.jctc.8b01176
   for GFN1-xTB:
   * S. Grimme, C. Bannwarth, P. Shushkov, J. Chem. Theory Comput., 2017,
     13, 1989-2009. DOI: 10.1021/acs.jctc.7b00118
   for GFN0-xTB:
   * P. Pracht, E. Caldeweyher, S. Ehlert, S. Grimme, ChemRxiv, 2019, preprint.
     DOI: 10.26434/chemrxiv.8326202.v1
   for GFN-FF:
   * S. Spicher and S. Grimme, Angew. Chem. Int. Ed., 2020, 59, 15665-15673.
     DOI: 10.1002/anie.202004239
   
   for DFT-D4:
   * E. Caldeweyher, C. Bannwarth and S. Grimme, J. Chem. Phys., 2017,
     147, 034112. DOI: 10.1063/1.4993215
   * E. Caldeweyher, S. Ehlert, A. Hansen, H. Neugebauer, S. Spicher,
     C. Bannwarth and S. Grimme, J. Chem. Phys., 2019, 150, 154122.
     DOI: 10.1063/1.5090222
   * E. Caldeweyher, J.-M. Mewes, S. Ehlert and S. Grimme, Phys. Chem. Chem. Phys.
     2020, 22, 8499-8512. DOI: 10.1039/D0CP00502A
   
   for sTDA-xTB:
   * S. Grimme and C. Bannwarth, J. Chem. Phys., 2016, 145, 054103.
     DOI: 10.1063/1.4959605
   
   in the mass-spec context:
   * V. Asgeirsson, C. Bauer and S. Grimme, Chem. Sci., 2017, 8, 4879.
     DOI: 10.1039/c7sc00601b
   * J. Koopman and S. Grimme, ACS Omega 2019, 4, 12, 15120-15133.
     DOI: 10.1021/acsomega.9b02011
   
   for metadynamics refer to:
   * S. Grimme, J. Chem. Theory Comput., 2019, 155, 2847-2862
     DOI: 10.1021/acs.jctc.9b00143
   
   with help from (in alphabetical order)
   P. Atkinson, C. Bannwarth, F. Bohle, G. Brandenburg, E. Caldeweyher
   M. Checinski, S. Dohm, S. Ehlert, S. Ehrlich, I. Gerasimov, J. Koopman
   C. Lavinge, S. Lehtola, F. März, M. Müller, F. Musil, H. Neugebauer
   J. Pisarek, P. Pracht, J. Seibert, P. Shushkov, S. Spicher, M. Stahn
   T. Strunk, J. Stückrath, T. Rose, and J. Unsleber
   
 * started run on 2021/11/09 at 16:26:15.821     

           -------------------------------------------------
          |                Calculation Setup                |
           -------------------------------------------------

          program call               : /opt/orca/otool_xtb opt+numfreq_XTB.xyz --grad -c 0 -u 0 -P 2 --namespace opt+numfreq --gbsa methanol
          calculation namespace      : opt+numfreq
          coordinate file            : opt+numfreq_XTB.xyz
          omp threads                :                     2
          number of atoms            :                    18
          number of electrons        :                    42
          charge                     :                     0
          spin                       :                   0.0
          first test random number   :      0.04902625045145

   ID    Z sym.   atoms
    1    6 C      1-3, 5, 8, 11
    2    1 H      4, 6, 7, 9, 10, 12-17
    3   35 Br     18
########################################################################
[WARNING] Please study the warnings concerning your input carefully
-1- prog_main_parseArguments: Process number higher than OMP_NUM_THREADS, I hope you know what you are doing.
########################################################################

           -------------------------------------------------
          |                 G F N 2 - x T B                 |
           -------------------------------------------------

        Reference                      10.1021/acs.jctc.8b01176
      * Hamiltonian:
        H0-scaling (s, p, d)           1.850000    2.230000    2.230000
        zeta-weighting                 0.500000
      * Dispersion:
        s8                             2.700000
        a1                             0.520000
        a2                             5.000000
        s9                             5.000000
      * Repulsion:
        kExp                           1.500000    1.000000
        rExp                           1.000000
      * Coulomb:
        alpha                          2.000000
        third order                    shell-resolved
        anisotropic                    true
        a3                             3.000000
        a5                             4.000000
        cn-shift                       1.200000
        cn-exp                         4.000000
        max-rad                        5.000000

      * Solvation model:               GBSA
        Solvent                        methanol
        Parameter file                 internal GFN2-xTB/GBSA
        Dielectric constant                3.2700E+01
        Reference state                gsolv [1 M gas/solution]
        Free energy shift                  3.3569E-03 Eh       2.1065E+00 kcal/mol
        Temperature                        2.9815E+02 K
        Density                            7.9200E-01 kg/L
        Solvent mass                       3.2040E+01 g/mol
        Interaction kernel             Still
        Born radius scaling (c1)           1.6087E+00
        Born radii integrator          GBOBC
        Born offset                        5.6550E-04 a0       1.0686E-03 AA
        H-bond correction              true
        Ion screening                  false
        Surface tension                    1.0000E-05 Eh       1.5569E+01 dyn/cm
        Grid points                               230 per atom

          ...................................................
          :                      SETUP                      :
          :.................................................:
          :  # basis functions                  45          :
          :  # atomic orbitals                  44          :
          :  # shells                           26          :
          :  # electrons                        42          :
          :  max. iterations                   250          :
          :  Hamiltonian                  GFN2-xTB          :
          :  restarted?                      false          :
          :  GBSA solvation                   true          :
          :  PC potential                    false          :
          :  electronic temp.          300.0000000     K    :
          :  accuracy                    1.0000000          :
          :  -> integral cutoff          0.2500000E+02      :
          :  -> integral neglect         0.1000000E-07      :
          :  -> SCF convergence          0.1000000E-05 Eh   :
          :  -> wf. convergence          0.1000000E-03 e    :
          :  Broyden damping             0.4000000          :
          ...................................................

 iter      E             dE          RMSdq      gap      omega  full diag
   1    -22.7819802 -0.227820E+02  0.385E+00    5.67       0.0  T
   2    -22.8289744 -0.469942E-01  0.282E+00    5.06       1.0  T
   3    -22.8318824 -0.290798E-02  0.100E+00    5.21       1.0  T
   4    -22.8339620 -0.207960E-02  0.444E-01    5.03       1.0  T
   5    -22.8341904 -0.228433E-03  0.300E-01    5.05       1.0  T
   6    -22.8343920 -0.201558E-03  0.181E-01    5.01       1.0  T
   7    -22.8344930 -0.101047E-03  0.685E-02    5.00       1.0  T
   8    -22.8345066 -0.135594E-04  0.182E-02    4.99       1.3  T
   9    -22.8345068 -0.233279E-06  0.296E-03    4.99       8.0  T
  10    -22.8345068 -0.242542E-07  0.117E-03    4.99      20.1  T
  11    -22.8345068 -0.170303E-08  0.687E-04    4.99      34.3  T
  12    -22.8345068 -0.730562E-09  0.315E-04    4.99      74.9  T

   *** convergence criteria satisfied after 12 iterations ***

         #    Occupation            Energy/Eh            Energy/eV
      -------------------------------------------------------------
         1        2.0000           -0.8337143             -22.6865
       ...           ...                  ...                  ...
        15        2.0000           -0.4685175             -12.7490
        16        2.0000           -0.4585459             -12.4777
        17        2.0000           -0.4305783             -11.7166
        18        2.0000           -0.4274395             -11.6312
        19        2.0000           -0.4217502             -11.4764
        20        2.0000           -0.4033408             -10.9755
        21        2.0000           -0.4020002             -10.9390 (HOMO)
        22                         -0.2187409              -5.9522 (LUMO)
        23                          0.0224964               0.6122
        24                          0.0377966               1.0285
        25                          0.0435955               1.1863
        26                          0.0489957               1.3332
       ...                                ...                  ...
        44                          0.3551437               9.6640
      -------------------------------------------------------------
                  HL-Gap            0.1832594 Eh            4.9867 eV
             Fermi-level           -0.3103705 Eh           -8.4456 eV

 SCC (total)                   0 d,  0 h,  0 min,  0.035 sec
 SCC setup                      ...        0 min,  0.002 sec (  4.570%)
 Dispersion                     ...        0 min,  0.000 sec (  0.863%)
 classical contributions        ...        0 min,  0.000 sec (  0.099%)
 integral evaluation            ...        0 min,  0.004 sec ( 10.199%)
 iterations                     ...        0 min,  0.022 sec ( 60.964%)
 molecular gradient             ...        0 min,  0.007 sec ( 20.619%)
 printout                       ...        0 min,  0.001 sec (  2.307%)

         :::::::::::::::::::::::::::::::::::::::::::::::::::::
         ::                     SUMMARY                     ::
         :::::::::::::::::::::::::::::::::::::::::::::::::::::
         :: total energy             -22.567227438304 Eh    ::
         :: total w/o Gsasa/hb       -22.559637890335 Eh    ::
         :: gradient norm              0.001619026294 Eh/a0 ::
         :: HOMO-LUMO gap              4.986741749672 eV    ::
         ::.................................................::
         :: SCC energy               -22.834506820902 Eh    ::
         :: -> isotropic ES            0.010837126588 Eh    ::
         :: -> anisotropic ES          0.002522553502 Eh    ::
         :: -> anisotropic XC          0.009172994328 Eh    ::
         :: -> dispersion             -0.013453177122 Eh    ::
         :: -> Gsolv                  -0.009706402854 Eh    ::
         ::    -> Gborn               -0.002116854886 Eh    ::
         ::    -> Gsasa               -0.010212967452 Eh    ::
         ::    -> Ghb                 -0.000733510039 Eh    ::
         ::    -> Gshift               0.003356929523 Eh    ::
         :: repulsion energy           0.267235112477 Eh    ::
         :: add. restraining           0.000000000000 Eh    ::
         :: total charge              -0.000000000000 e     ::
         :::::::::::::::::::::::::::::::::::::::::::::::::::::

           -------------------------------------------------
          |                Property Printout                |
           -------------------------------------------------

    * Orbital Energies and Occupations

         #    Occupation            Energy/Eh            Energy/eV
      -------------------------------------------------------------
         1        2.0000           -0.8337143             -22.6865
       ...           ...                  ...                  ...
         9        2.0000           -0.5297657             -14.4157
        10        2.0000           -0.5160466             -14.0423
        11        2.0000           -0.4903386             -13.3428
        12        2.0000           -0.4823127             -13.1244
        13        2.0000           -0.4756430             -12.9429
        14        2.0000           -0.4733943             -12.8817
        15        2.0000           -0.4685175             -12.7490
        16        2.0000           -0.4585459             -12.4777
        17        2.0000           -0.4305783             -11.7166
        18        2.0000           -0.4274395             -11.6312
        19        2.0000           -0.4217502             -11.4764
        20        2.0000           -0.4033408             -10.9755
        21        2.0000           -0.4020002             -10.9390 (HOMO)
        22                         -0.2187409              -5.9522 (LUMO)
        23                          0.0224964               0.6122
        24                          0.0377966               1.0285
        25                          0.0435955               1.1863
        26                          0.0489957               1.3332
        27                          0.0683368               1.8595
        28                          0.0771703               2.0999
        29                          0.0858105               2.3350
        30                          0.1028806               2.7995
        31                          0.1160882               3.1589
        32                          0.1267601               3.4493
       ...                                ...                  ...
        44                          0.3551437               9.6640
      -------------------------------------------------------------
                  HL-Gap            0.1832594 Eh            4.9867 eV
             Fermi-level           -0.3103705 Eh           -8.4456 eV

     #   Z          covCN         q      C6AA      α(0)
     1   6 C        3.805    -0.062    21.693     6.631
     2   6 C        3.803    -0.062    21.690     6.630
     3   6 C        3.858    -0.058    21.567     6.605
     4   1 H        0.926     0.056     2.248     2.345
     5   6 C        3.804    -0.061    21.673     6.628
     6   1 H        0.924     0.040     2.443     2.445
     7   1 H        0.924     0.050     2.325     2.384
     8   6 C        3.859    -0.056    21.537     6.600
     9   1 H        0.924     0.041     2.437     2.441
    10   1 H        0.924     0.035     2.516     2.480
    11   6 C        3.793     0.071    19.396     6.272
    12   1 H        0.924     0.048     2.343     2.394
    13   1 H        0.924     0.044     2.396     2.421
    14   1 H        0.924     0.042     2.418     2.432
    15   1 H        0.924     0.045     2.388     2.417
    16   1 H        0.924     0.038     2.475     2.460
    17   1 H        0.924     0.045     2.386     2.415
    18  35 Br       1.021    -0.256   192.213    22.354

 Mol. C6AA /au·bohr⁶  :       3416.693590
 Mol. C8AA /au·bohr⁸  :     100891.978376
 Mol. α(0) /au        :         88.352585


Wiberg/Mayer (AO) data.
largest (>0.10) Wiberg bond orders for each atom

 ---------------------------------------------------------------------------
     #   Z sym  total        # sym  WBO       # sym  WBO       # sym  WBO
 ---------------------------------------------------------------------------
     1   6 C    3.996 --     2 C    1.005     8 C    0.993    16 H    0.981
                            17 H    0.979
     2   6 C    3.997 --     5 C    1.011     1 C    1.005    10 H    0.979
                             9 H    0.978
     3   6 C    3.994 --    11 C    1.005     5 C    0.995     6 H    0.980
                             7 H    0.976
     4   1 H    0.997 --    11 C    0.970
     5   6 C    3.996 --     2 C    1.011     3 C    0.995    15 H    0.979
                            14 H    0.977
     6   1 H    0.998 --     3 C    0.980
     7   1 H    0.998 --     3 C    0.976
     8   6 C    3.994 --    11 C    1.010     1 C    0.993    12 H    0.977
                            13 H    0.977
     9   1 H    0.998 --     2 C    0.978
    10   1 H    0.999 --     2 C    0.979
    11   6 C    3.931 --     8 C    1.010     3 C    1.005     4 H    0.970
                            18 Br   0.915
    12   1 H    0.998 --     8 C    0.977
    13   1 H    0.998 --     8 C    0.977
    14   1 H    0.998 --     5 C    0.977
    15   1 H    0.998 --     5 C    0.979
    16   1 H    0.999 --     1 C    0.981
    17   1 H    0.998 --     1 C    0.979
    18  35 Br   0.989 --    11 C    0.915
 ---------------------------------------------------------------------------

Topologies differ in total number of bonds
Writing topology from bond orders to xtbtopo.mol

molecular dipole:
                 x           y           z       tot (Debye)
 q only:        1.366       0.004       0.024
   full:        1.816      -0.001      -0.082       4.621
molecular quadrupole (traceless):
                xx          xy          yy          xz          yz          zz
 q only:       -1.509      -0.050       1.302       0.141       0.034       0.207
  q+dip:       -7.188       0.096       2.897       0.509       0.007       4.290
   full:       -5.495       0.032       2.595       0.226       0.018       2.900


           -------------------------------------------------
          | TOTAL ENERGY              -22.567227438304 Eh   |
          | GRADIENT NORM               0.001619026294 Eh/α |
          | HOMO-LUMO GAP               4.986741749672 eV   |
           -------------------------------------------------

------------------------------------------------------------------------
 * finished run on 2021/11/09 at 16:26:15.910     
------------------------------------------------------------------------
 total:
 * wall-time:     0 d,  0 h,  0 min,  0.089 sec
 *  cpu-time:     0 d,  0 h,  0 min,  0.120 sec
 * ratio c/w:     1.358 speedup
 SCF:
 * wall-time:     0 d,  0 h,  0 min,  0.036 sec
 *  cpu-time:     0 d,  0 h,  0 min,  0.053 sec
 * ratio c/w:     1.470 speedup


-------------------------   --------------------
FINAL SINGLE POINT ENERGY       -22.567227438300
-------------------------   --------------------

------------------------------------------------------------------------------
                         ORCA GEOMETRY RELAXATION STEP
------------------------------------------------------------------------------

Reading the OPT-File                    .... done
Getting information on internals        .... done
Copying old internal coords+grads       .... done
Making the new internal coordinates     .... (new redundants).... done
Validating the new internal coordinates .... (new redundants).... done
Calculating the B-matrix                .... done
Calculating the G,G- and P matrices     .... done
Transforming gradient to internals      .... done
Projecting the internal gradient        .... done
Number of atoms                         ....  18
Number of internal coordinates          .... 108
Current Energy                          ....   -22.567227438 Eh
Current gradient norm                   ....     0.001619026 Eh/bohr
Maximum allowed component of the step   ....  0.300
Current trust radius                    ....  0.300
Evaluating the initial hessian          ....  (Almloef) done
Projecting the Hessian                  .... done
Forming the augmented Hessian           .... done
Diagonalizing the augmented Hessian     .... done
Last element of RFO vector              ....  0.999980771
Lowest eigenvalues of augmented Hessian:
 -0.000005412  0.010860129  0.013334044  0.018516023  0.043679972
Length of the computed step             ....  0.006201579
The final length of the internal step   ....  0.006201579
Converting the step to cartesian space:
 Initial RMS(Int)=    0.0005967472
Transforming coordinates:
 Iter   0:  RMS(Cart)=    0.0010100239 RMS(Int)=    0.0005967494
 Iter   1:  RMS(Cart)=    0.0000006326 RMS(Int)=    0.0000003820
 Iter   2:  RMS(Cart)=    0.0000000006 RMS(Int)=    0.0000000004
done
Storing new coordinates                 .... done

                                .--------------------.
          ----------------------|Geometry convergence|-------------------------
          Item                value                   Tolerance       Converged
          ---------------------------------------------------------------------
          RMS gradient        0.0001082611            0.0001000000      NO
          MAX gradient        0.0009252844            0.0003000000      NO
          RMS step            0.0005967472            0.0020000000      YES
          MAX step            0.0040086856            0.0040000000      NO
          ........................................................
          Max(Bonds)      0.0021      Max(Angles)    0.03
          Max(Dihed)        0.08      Max(Improp)    0.00
          ---------------------------------------------------------------------

The optimization has not yet converged - more geometry cycles are needed


    ---------------------------------------------------------------------------
                         Redundant Internal Coordinates
                            (Angstroem and degrees)

        Definition                    Value    dE/dq     Step     New-Value
    ----------------------------------------------------------------------------
     1. B(C   1,C   0)                1.5348  0.000059 -0.0001    1.5347   
     2. B(C   4,C   2)                1.5370  0.000037 -0.0001    1.5370   
     3. B(C   4,C   1)                1.5251  0.000054 -0.0001    1.5251   
     4. B(H   5,C   2)                1.0922  0.000148 -0.0002    1.0920   
     5. B(H   6,C   2)                1.0920  0.000168 -0.0002    1.0917   
     6. B(C   7,C   0)                1.5372  0.000019 -0.0000    1.5372   
     7. B(H   8,C   1)                1.0910  0.000246 -0.0004    1.0907   
     8. B(H   9,C   1)                1.0921  0.000124 -0.0002    1.0919   
     9. B(C  10,C   7)                1.5165 -0.000025  0.0000    1.5165   
    10. B(C  10,H   3)                1.0915  0.000111 -0.0002    1.0913   
    11. B(C  10,C   2)                1.5257 -0.000005 -0.0000    1.5257   
    12. B(H  11,C   7)                1.0921  0.000140 -0.0002    1.0919   
    13. B(H  12,C   7)                1.0918  0.000186 -0.0003    1.0915   
    14. B(H  13,C   4)                1.0908  0.000227 -0.0003    1.0904   
    15. B(H  14,C   4)                1.0913  0.000083 -0.0001    1.0912   
    16. B(H  15,C   0)                1.0915  0.000164 -0.0002    1.0912   
    17. B(H  16,C   0)                1.0911  0.000246 -0.0004    1.0907   
    18. B(Br 17,C  10)                1.9911 -0.000925  0.0021    1.9932   
    19. A(H  15,C   0,H  16)          107.49 -0.000010    0.00    107.50   
    20. A(C   1,C   0,H  16)          109.95 -0.000003    0.00    109.96   
    21. A(C   1,C   0,C   7)          111.75 -0.000025   -0.01    111.74   
    22. A(C   7,C   0,H  16)          108.52  0.000030   -0.01    108.51   
    23. A(C   7,C   0,H  15)          109.73  0.000017   -0.00    109.73   
    24. A(C   1,C   0,H  15)          109.30 -0.000008    0.01    109.31   
    25. A(C   0,C   1,H   8)          109.68 -0.000004    0.00    109.68   
    26. A(H   8,C   1,H   9)          107.38 -0.000015    0.01    107.39   
    27. A(C   4,C   1,H   9)          109.02 -0.000018    0.01    109.02   
    28. A(C   0,C   1,H   9)          110.26 -0.000004    0.00    110.26   
    29. A(C   4,C   1,H   8)          110.04  0.000017   -0.01    110.03   
    30. A(C   0,C   1,C   4)          110.41  0.000022   -0.01    110.40   
    31. A(C   4,C   2,H   5)          110.47  0.000009    0.00    110.48   
    32. A(C   4,C   2,C  10)          110.52  0.000031   -0.02    110.49   
    33. A(H   6,C   2,C  10)          110.02  0.000027   -0.00    110.02   
    34. A(H   5,C   2,H   6)          107.45  0.000007    0.00    107.46   
    35. A(C   4,C   2,H   6)          109.07 -0.000056    0.02    109.09   
    36. A(H   5,C   2,C  10)          109.25 -0.000019    0.00    109.25   
    37. A(H  13,C   4,H  14)          107.54 -0.000022    0.01    107.55   
    38. A(C   1,C   4,H  14)          108.84  0.000003    0.00    108.84   
    39. A(C   2,C   4,H  13)          109.30  0.000042   -0.01    109.29   
    40. A(C   1,C   4,H  13)          110.36  0.000007   -0.01    110.36   
    41. A(C   2,C   4,H  14)          110.00 -0.000027    0.01    110.01   
    42. A(C   1,C   4,C   2)          110.75 -0.000004   -0.01    110.73   
    43. A(H  11,C   7,H  12)          107.58 -0.000001    0.01    107.59   
    44. A(C  10,C   7,H  12)          110.65 -0.000037    0.01    110.66   
    45. A(C   0,C   7,H  12)          109.94  0.000030   -0.01    109.94   
    46. A(C  10,C   7,H  11)          108.94  0.000009    0.00    108.94   
    47. A(C   0,C   7,H  11)          110.60 -0.000060    0.02    110.61   
    48. A(C   0,C   7,C  10)          109.11  0.000057   -0.03    109.08   
    49. A(C   2,C  10,H   3)          111.50 -0.000001   -0.00    111.49   
    50. A(C   7,C  10,Br 17)          110.23 -0.000007    0.02    110.24   
    51. A(H   3,C  10,C   7)          110.14 -0.000021    0.00    110.14   
    52. A(H   3,C  10,Br 17)          103.46  0.000066   -0.03    103.43   
    53. A(C   2,C  10,Br 17)          109.88 -0.000040    0.02    109.90   
    54. A(C   2,C  10,C   7)          111.37  0.000006   -0.01    111.37   
    55. D(H   9,C   1,C   0,H  15)     32.57  0.000001    0.01     32.58   
    56. D(H   8,C   1,C   0,H  15)    -85.47  0.000023   -0.01    -85.48   
    57. D(H   8,C   1,C   0,C   7)    152.88  0.000024   -0.01    152.87   
    58. D(C   4,C   1,C   0,H  16)    -89.12 -0.000028    0.02    -89.10   
    59. D(H   9,C   1,C   0,H  16)    150.35 -0.000017    0.02    150.37   
    60. D(C   4,C   1,C   0,C   7)     31.45 -0.000010    0.01     31.46   
    61. D(C   4,C   1,C   0,H  15)    153.10 -0.000010    0.01    153.11   
    62. D(H   9,C   1,C   0,C   7)    -89.08  0.000002    0.01    -89.07   
    63. D(H   8,C   1,C   0,H  16)     32.31  0.000005    0.00     32.31   
    64. D(H  13,C   4,C   1,H   8)     52.22 -0.000023   -0.01     52.20   
    65. D(C   1,C   4,C   2,C  10)     30.18 -0.000028    0.03     30.21   
    66. D(H  13,C   4,C   2,H   5)     30.94  0.000002    0.02     30.96   
    67. D(H  13,C   4,C   2,C  10)    151.97  0.000006    0.01    151.98   
    68. D(H  13,C   4,C   1,H   9)    -65.30 -0.000005   -0.03    -65.32   
    69. D(H  13,C   4,C   1,C   0)    173.43 -0.000002   -0.02    173.41   
    70. D(C   2,C   4,C   1,H   9)     55.87  0.000050   -0.05     55.82   
    71. D(C   2,C   4,C   1,C   0)    -65.40  0.000052   -0.05    -65.45   
    72. D(C   1,C   4,C   2,H   6)    151.25 -0.000012    0.02    151.28   
    73. D(C   1,C   4,C   2,H   5)    -90.85 -0.000032    0.04    -90.81   
    74. D(H  14,C   4,C   2,H   6)     30.90  0.000004    0.02     30.92   
    75. D(H  14,C   4,C   2,H   5)    148.80 -0.000015    0.03    148.83   
    76. D(H  13,C   4,C   2,H   6)    -86.95  0.000022    0.00    -86.95   
    77. D(H  14,C   4,C   1,H   9)    176.91  0.000016   -0.04    176.87   
    78. D(C   2,C   4,C   1,H   8)    173.39  0.000031   -0.04    173.35   
    79. D(H  14,C   4,C   1,H   8)    -65.58 -0.000003   -0.03    -65.60   
    80. D(H  14,C   4,C   1,C   0)     55.64  0.000018   -0.04     55.60   
    81. D(H  14,C   4,C   2,C  10)    -90.17 -0.000012    0.02    -90.15   
    82. D(H  11,C   7,C   0,C   1)    -88.32 -0.000022    0.03    -88.29   
    83. D(C  10,C   7,C   0,H  16)    152.91 -0.000012    0.02    152.93   
    84. D(C  10,C   7,C   0,H  15)    -89.91  0.000003    0.02    -89.89   
    85. D(C  10,C   7,C   0,C   1)     31.50 -0.000012    0.03     31.52   
    86. D(H  12,C   7,C   0,H  16)    -85.58 -0.000003    0.01    -85.57   
    87. D(H  12,C   7,C   0,H  15)     31.60  0.000012    0.01     31.62   
    88. D(H  12,C   7,C   0,C   1)    153.01 -0.000004    0.01    153.03   
    89. D(H  11,C   7,C   0,H  16)     33.09 -0.000022    0.03     33.12   
    90. D(H  11,C   7,C   0,H  15)    150.27 -0.000007    0.03    150.30   
    91. D(Br 17,C  10,C   7,H  12)     48.95  0.000033   -0.06     48.89   
    92. D(Br 17,C  10,C   7,H  11)    -69.13  0.000051   -0.08    -69.21   
    93. D(Br 17,C  10,C   7,C   0)    170.04  0.000084   -0.08    169.95   
    94. D(H   3,C  10,C   7,H  12)    -64.59 -0.000031   -0.03    -64.62   
    95. D(H   3,C  10,C   7,H  11)    177.33 -0.000013   -0.05    177.28   
    96. D(H   3,C  10,C   7,C   0)     56.50  0.000020   -0.05     56.44   
    97. D(C   2,C  10,C   7,H  12)    171.18 -0.000019   -0.03    171.15   
    98. D(C   2,C  10,C   7,H  11)     53.10 -0.000001   -0.05     53.05   
    99. D(C   2,C  10,C   7,C   0)    -67.74  0.000032   -0.05    -67.79   
   100. D(Br 17,C  10,C   2,H   6)     36.05 -0.000026    0.04     36.09   
   101. D(Br 17,C  10,C   2,H   5)    -81.68 -0.000040    0.04    -81.64   
   102. D(Br 17,C  10,C   2,C   4)    156.56 -0.000059    0.05    156.61   
   103. D(C   7,C  10,C   2,H   6)    -86.38  0.000007    0.01    -86.36   
   104. D(C   7,C  10,C   2,H   5)    155.89 -0.000006    0.01    155.90   
   105. D(C   7,C  10,C   2,C   4)     34.14 -0.000026    0.02     34.15   
   106. D(H   3,C  10,C   2,H   6)    150.16  0.000030    0.02    150.17   
   107. D(H   3,C  10,C   2,H   5)     32.42  0.000017    0.01     32.43   
   108. D(H   3,C  10,C   2,C   4)    -89.33 -0.000003    0.02    -89.31   
    ----------------------------------------------------------------------------

         *************************************************************
         *                GEOMETRY OPTIMIZATION CYCLE   2            *
         *************************************************************
      -----------------------------------------------------------      
     |                   =====================                   |     
     |                           x T B                           |     
     |                   =====================                   |     
     |                         S. Grimme                         |     
     |          Mulliken Center for Theoretical Chemistry        |     
     |                    University of Bonn                     |     
      -----------------------------------------------------------      

   * xtb version 6.4.0 (d4b70c2) compiled by 'ehlert@majestix' on 2021-02-01

   xtb is free software: you can redistribute it and/or modify it under
   the terms of the GNU Lesser General Public License as published by
   the Free Software Foundation, either version 3 of the License, or
   (at your option) any later version.
   
   xtb is distributed in the hope that it will be useful,
   but WITHOUT ANY WARRANTY; without even the implied warranty of
   MERCHANTABILITY or FITNESS FOR A PARTICULAR PURPOSE.  See the
   GNU Lesser General Public License for more details.
   
   Cite this work as:
   * C. Bannwarth, E. Caldeweyher, S. Ehlert, A. Hansen, P. Pracht,
     J. Seibert, S. Spicher, S. Grimme, WIREs Comput. Mol. Sci., 2020,
     e01493. DOI: 10.1002/wcms.1493
   
   for GFN2-xTB:
   * C. Bannwarth, S. Ehlert and S. Grimme., J. Chem. Theory Comput., 2019,
     15, 1652-1671. DOI: 10.1021/acs.jctc.8b01176
   for GFN1-xTB:
   * S. Grimme, C. Bannwarth, P. Shushkov, J. Chem. Theory Comput., 2017,
     13, 1989-2009. DOI: 10.1021/acs.jctc.7b00118
   for GFN0-xTB:
   * P. Pracht, E. Caldeweyher, S. Ehlert, S. Grimme, ChemRxiv, 2019, preprint.
     DOI: 10.26434/chemrxiv.8326202.v1
   for GFN-FF:
   * S. Spicher and S. Grimme, Angew. Chem. Int. Ed., 2020, 59, 15665-15673.
     DOI: 10.1002/anie.202004239
   
   for DFT-D4:
   * E. Caldeweyher, C. Bannwarth and S. Grimme, J. Chem. Phys., 2017,
     147, 034112. DOI: 10.1063/1.4993215
   * E. Caldeweyher, S. Ehlert, A. Hansen, H. Neugebauer, S. Spicher,
     C. Bannwarth and S. Grimme, J. Chem. Phys., 2019, 150, 154122.
     DOI: 10.1063/1.5090222
   * E. Caldeweyher, J.-M. Mewes, S. Ehlert and S. Grimme, Phys. Chem. Chem. Phys.
     2020, 22, 8499-8512. DOI: 10.1039/D0CP00502A
   
   for sTDA-xTB:
   * S. Grimme and C. Bannwarth, J. Chem. Phys., 2016, 145, 054103.
     DOI: 10.1063/1.4959605
   
   in the mass-spec context:
   * V. Asgeirsson, C. Bauer and S. Grimme, Chem. Sci., 2017, 8, 4879.
     DOI: 10.1039/c7sc00601b
   * J. Koopman and S. Grimme, ACS Omega 2019, 4, 12, 15120-15133.
     DOI: 10.1021/acsomega.9b02011
   
   for metadynamics refer to:
   * S. Grimme, J. Chem. Theory Comput., 2019, 155, 2847-2862
     DOI: 10.1021/acs.jctc.9b00143
   
   with help from (in alphabetical order)
   P. Atkinson, C. Bannwarth, F. Bohle, G. Brandenburg, E. Caldeweyher
   M. Checinski, S. Dohm, S. Ehlert, S. Ehrlich, I. Gerasimov, J. Koopman
   C. Lavinge, S. Lehtola, F. März, M. Müller, F. Musil, H. Neugebauer
   J. Pisarek, P. Pracht, J. Seibert, P. Shushkov, S. Spicher, M. Stahn
   T. Strunk, J. Stückrath, T. Rose, and J. Unsleber
   
 * started run on 2021/11/09 at 16:26:16.125     

           -------------------------------------------------
          |                Calculation Setup                |
           -------------------------------------------------

          program call               : /opt/orca/otool_xtb opt+numfreq_XTB.xyz --grad -c 0 -u 0 -P 2 --namespace opt+numfreq --gbsa methanol
          calculation namespace      : opt+numfreq
          coordinate file            : opt+numfreq_XTB.xyz
          omp threads                :                     2
          number of atoms            :                    18
          number of electrons        :                    42
          charge                     :                     0
          spin                       :                   0.0
          first test random number   :      0.83804488425786

   ID    Z sym.   atoms
    1    6 C      1-3, 5, 8, 11
    2    1 H      4, 6, 7, 9, 10, 12-17
    3   35 Br     18
########################################################################
[WARNING] Please study the warnings concerning your input carefully
-1- prog_main_parseArguments: Process number higher than OMP_NUM_THREADS, I hope you know what you are doing.
########################################################################

           -------------------------------------------------
          |                 G F N 2 - x T B                 |
           -------------------------------------------------

        Reference                      10.1021/acs.jctc.8b01176
      * Hamiltonian:
        H0-scaling (s, p, d)           1.850000    2.230000    2.230000
        zeta-weighting                 0.500000
      * Dispersion:
        s8                             2.700000
        a1                             0.520000
        a2                             5.000000
        s9                             5.000000
      * Repulsion:
        kExp                           1.500000    1.000000
        rExp                           1.000000
      * Coulomb:
        alpha                          2.000000
        third order                    shell-resolved
        anisotropic                    true
        a3                             3.000000
        a5                             4.000000
        cn-shift                       1.200000
        cn-exp                         4.000000
        max-rad                        5.000000

      * Solvation model:               GBSA
        Solvent                        methanol
        Parameter file                 internal GFN2-xTB/GBSA
        Dielectric constant                3.2700E+01
        Reference state                gsolv [1 M gas/solution]
        Free energy shift                  3.3569E-03 Eh       2.1065E+00 kcal/mol
        Temperature                        2.9815E+02 K
        Density                            7.9200E-01 kg/L
        Solvent mass                       3.2040E+01 g/mol
        Interaction kernel             Still
        Born radius scaling (c1)           1.6087E+00
        Born radii integrator          GBOBC
        Born offset                        5.6550E-04 a0       1.0686E-03 AA
        H-bond correction              true
        Ion screening                  false
        Surface tension                    1.0000E-05 Eh       1.5569E+01 dyn/cm
        Grid points                               230 per atom

          ...................................................
          :                      SETUP                      :
          :.................................................:
          :  # basis functions                  45          :
          :  # atomic orbitals                  44          :
          :  # shells                           26          :
          :  # electrons                        42          :
          :  max. iterations                   250          :
          :  Hamiltonian                  GFN2-xTB          :
          :  restarted?                      false          :
          :  GBSA solvation                   true          :
          :  PC potential                    false          :
          :  electronic temp.          300.0000000     K    :
          :  accuracy                    1.0000000          :
          :  -> integral cutoff          0.2500000E+02      :
          :  -> integral neglect         0.1000000E-07      :
          :  -> SCF convergence          0.1000000E-05 Eh   :
          :  -> wf. convergence          0.1000000E-03 e    :
          :  Broyden damping             0.4000000          :
          ...................................................

 iter      E             dE          RMSdq      gap      omega  full diag
   1    -22.7822889 -0.227823E+02  0.384E+00    5.65       0.0  T
   2    -22.8292801 -0.469912E-01  0.282E+00    5.04       1.0  T
   3    -22.8322154 -0.293534E-02  0.101E+00    5.20       1.0  T
   4    -22.8342844 -0.206896E-02  0.441E-01    5.02       1.0  T
   5    -22.8345092 -0.224822E-03  0.298E-01    5.04       1.0  T
   6    -22.8347080 -0.198748E-03  0.179E-01    5.00       1.0  T
   7    -22.8348074 -0.994404E-04  0.688E-02    4.98       1.0  T
   8    -22.8348211 -0.136860E-04  0.182E-02    4.98       1.3  T
   9    -22.8348213 -0.234706E-06  0.299E-03    4.97       7.9  T
  10    -22.8348214 -0.244312E-07  0.116E-03    4.97      20.2  T
  11    -22.8348214 -0.167896E-08  0.683E-04    4.97      34.5  T
  12    -22.8348214 -0.717534E-09  0.312E-04    4.97      75.6  T

   *** convergence criteria satisfied after 12 iterations ***

         #    Occupation            Energy/Eh            Energy/eV
      -------------------------------------------------------------
         1        2.0000           -0.8336012             -22.6834
       ...           ...                  ...                  ...
        15        2.0000           -0.4684849             -12.7481
        16        2.0000           -0.4585213             -12.4770
        17        2.0000           -0.4305219             -11.7151
        18        2.0000           -0.4273838             -11.6297
        19        2.0000           -0.4217149             -11.4754
        20        2.0000           -0.4032832             -10.9739
        21        2.0000           -0.4019413             -10.9374 (HOMO)
        22                         -0.2191522              -5.9634 (LUMO)
        23                          0.0226554               0.6165
        24                          0.0379352               1.0323
        25                          0.0437484               1.1905
        26                          0.0490936               1.3359
       ...                                ...                  ...
        44                          0.3532219               9.6117
      -------------------------------------------------------------
                  HL-Gap            0.1827891 Eh            4.9739 eV
             Fermi-level           -0.3105468 Eh           -8.4504 eV

 SCC (total)                   0 d,  0 h,  0 min,  0.023 sec
 SCC setup                      ...        0 min,  0.001 sec (  2.323%)
 Dispersion                     ...        0 min,  0.000 sec (  0.554%)
 classical contributions        ...        0 min,  0.000 sec (  0.603%)
 integral evaluation            ...        0 min,  0.003 sec ( 14.693%)
 iterations                     ...        0 min,  0.010 sec ( 45.878%)
 molecular gradient             ...        0 min,  0.007 sec ( 32.081%)
 printout                       ...        0 min,  0.001 sec (  3.617%)

         :::::::::::::::::::::::::::::::::::::::::::::::::::::
         ::                     SUMMARY                     ::
         :::::::::::::::::::::::::::::::::::::::::::::::::::::
         :: total energy             -22.567231349384 Eh    ::
         :: total w/o Gsasa/hb       -22.559635952641 Eh    ::
         :: gradient norm              0.000964647882 Eh/a0 ::
         :: HOMO-LUMO gap              4.973945477145 eV    ::
         ::.................................................::
         :: SCC energy               -22.834821358021 Eh    ::
         :: -> isotropic ES            0.010891288223 Eh    ::
         :: -> anisotropic ES          0.002505071031 Eh    ::
         :: -> anisotropic XC          0.009243926726 Eh    ::
         :: -> dispersion             -0.013449907181 Eh    ::
         :: -> Gsolv                  -0.009730087270 Eh    ::
         ::    -> Gborn               -0.002134690527 Eh    ::
         ::    -> Gsasa               -0.010214757567 Eh    ::
         ::    -> Ghb                 -0.000737568699 Eh    ::
         ::    -> Gshift               0.003356929523 Eh    ::
         :: repulsion energy           0.267545750114 Eh    ::
         :: add. restraining           0.000000000000 Eh    ::
         :: total charge               0.000000000000 e     ::
         :::::::::::::::::::::::::::::::::::::::::::::::::::::

           -------------------------------------------------
          |                Property Printout                |
           -------------------------------------------------

    * Orbital Energies and Occupations

         #    Occupation            Energy/Eh            Energy/eV
      -------------------------------------------------------------
         1        2.0000           -0.8336012             -22.6834
       ...           ...                  ...                  ...
         9        2.0000           -0.5296987             -14.4138
        10        2.0000           -0.5160061             -14.0412
        11        2.0000           -0.4902727             -13.3410
        12        2.0000           -0.4822437             -13.1225
        13        2.0000           -0.4755566             -12.9406
        14        2.0000           -0.4733147             -12.8795
        15        2.0000           -0.4684849             -12.7481
        16        2.0000           -0.4585213             -12.4770
        17        2.0000           -0.4305219             -11.7151
        18        2.0000           -0.4273838             -11.6297
        19        2.0000           -0.4217149             -11.4754
        20        2.0000           -0.4032832             -10.9739
        21        2.0000           -0.4019413             -10.9374 (HOMO)
        22                         -0.2191522              -5.9634 (LUMO)
        23                          0.0226554               0.6165
        24                          0.0379352               1.0323
        25                          0.0437484               1.1905
        26                          0.0490936               1.3359
        27                          0.0684450               1.8625
        28                          0.0772926               2.1032
        29                          0.0860240               2.3408
        30                          0.1031175               2.8060
        31                          0.1161917               3.1617
        32                          0.1269873               3.4555
       ...                                ...                  ...
        44                          0.3532219               9.6117
      -------------------------------------------------------------
                  HL-Gap            0.1827891 Eh            4.9739 eV
             Fermi-level           -0.3105468 Eh           -8.4504 eV

     #   Z          covCN         q      C6AA      α(0)
     1   6 C        3.805    -0.062    21.694     6.631
     2   6 C        3.803    -0.062    21.692     6.631
     3   6 C        3.857    -0.058    21.569     6.605
     4   1 H        0.926     0.056     2.245     2.343
     5   6 C        3.804    -0.061    21.674     6.628
     6   1 H        0.924     0.041     2.442     2.444
     7   1 H        0.924     0.050     2.323     2.384
     8   6 C        3.858    -0.056    21.539     6.600
     9   1 H        0.924     0.041     2.435     2.440
    10   1 H        0.924     0.035     2.515     2.480
    11   6 C        3.793     0.071    19.398     6.272
    12   1 H        0.924     0.048     2.341     2.393
    13   1 H        0.924     0.044     2.395     2.420
    14   1 H        0.924     0.042     2.417     2.431
    15   1 H        0.924     0.045     2.387     2.416
    16   1 H        0.924     0.038     2.474     2.460
    17   1 H        0.924     0.045     2.384     2.415
    18  35 Br       1.019    -0.257   192.233    22.355

 Mol. C6AA /au·bohr⁶  :       3416.301583
 Mol. C8AA /au·bohr⁸  :     100887.915849
 Mol. α(0) /au        :         88.347352


Wiberg/Mayer (AO) data.
largest (>0.10) Wiberg bond orders for each atom

 ---------------------------------------------------------------------------
     #   Z sym  total        # sym  WBO       # sym  WBO       # sym  WBO
 ---------------------------------------------------------------------------
     1   6 C    3.996 --     2 C    1.005     8 C    0.993    16 H    0.981
                            17 H    0.979
     2   6 C    3.997 --     5 C    1.011     1 C    1.005    10 H    0.979
                             9 H    0.978
     3   6 C    3.993 --    11 C    1.005     5 C    0.995     6 H    0.980
                             7 H    0.976
     4   1 H    0.997 --    11 C    0.970
     5   6 C    3.996 --     2 C    1.011     3 C    0.995    15 H    0.979
                            14 H    0.977
     6   1 H    0.998 --     3 C    0.980
     7   1 H    0.998 --     3 C    0.976
     8   6 C    3.994 --    11 C    1.010     1 C    0.993    12 H    0.977
                            13 H    0.977
     9   1 H    0.998 --     2 C    0.978
    10   1 H    0.999 --     2 C    0.979
    11   6 C    3.931 --     8 C    1.010     3 C    1.005     4 H    0.970
                            18 Br   0.914
    12   1 H    0.998 --     8 C    0.977
    13   1 H    0.998 --     8 C    0.977
    14   1 H    0.998 --     5 C    0.977
    15   1 H    0.998 --     5 C    0.979
    16   1 H    0.999 --     1 C    0.981
    17   1 H    0.998 --     1 C    0.979
    18  35 Br   0.988 --    11 C    0.914
 ---------------------------------------------------------------------------

Topologies differ in total number of bonds
Writing topology from bond orders to xtbtopo.mol

molecular dipole:
                 x           y           z       tot (Debye)
 q only:        1.371       0.005       0.025
   full:        1.816      -0.000      -0.080       4.619
molecular quadrupole (traceless):
                xx          xy          yy          xz          yz          zz
 q only:       -1.516      -0.051       1.308       0.137       0.034       0.208
  q+dip:       -7.159       0.093       2.885       0.496       0.006       4.273
   full:       -5.468       0.029       2.584       0.215       0.018       2.884


           -------------------------------------------------
          | TOTAL ENERGY              -22.567231349384 Eh   |
          | GRADIENT NORM               0.000964647882 Eh/α |
          | HOMO-LUMO GAP               4.973945477145 eV   |
           -------------------------------------------------

------------------------------------------------------------------------
 * finished run on 2021/11/09 at 16:26:16.178     
------------------------------------------------------------------------
 total:
 * wall-time:     0 d,  0 h,  0 min,  0.053 sec
 *  cpu-time:     0 d,  0 h,  0 min,  0.071 sec
 * ratio c/w:     1.346 speedup
 SCF:
 * wall-time:     0 d,  0 h,  0 min,  0.024 sec
 *  cpu-time:     0 d,  0 h,  0 min,  0.040 sec
 * ratio c/w:     1.670 speedup


-------------------------   --------------------
FINAL SINGLE POINT ENERGY       -22.567231349380
-------------------------   --------------------

------------------------------------------------------------------------------
                         ORCA GEOMETRY RELAXATION STEP
------------------------------------------------------------------------------

Reading the OPT-File                    .... done
Getting information on internals        .... done
Copying old internal coords+grads       .... done
Making the new internal coordinates     .... (new redundants).... done
Validating the new internal coordinates .... (new redundants).... done
Calculating the B-matrix                .... done
Calculating the G,G- and P matrices     .... done
Transforming gradient to internals      .... done
Projecting the internal gradient        .... done
Number of atoms                         ....  18
Number of internal coordinates          .... 108
Current Energy                          ....   -22.567231349 Eh
Current gradient norm                   ....     0.000964648 Eh/bohr
Maximum allowed component of the step   ....  0.300
Current trust radius                    ....  0.300
Updating the Hessian (BFGS)             .... done
Forming the augmented Hessian           .... done
Diagonalizing the augmented Hessian     .... done
Last element of RFO vector              ....  0.999973831
Lowest eigenvalues of augmented Hessian:
 -0.000002928  0.010820441  0.013304736  0.017408148  0.043764362
Length of the computed step             ....  0.007234616
The final length of the internal step   ....  0.007234616
Converting the step to cartesian space:
 Initial RMS(Int)=    0.0006961513
Transforming coordinates:
 Iter   0:  RMS(Cart)=    0.0010708209 RMS(Int)=    0.0006961207
 Iter   1:  RMS(Cart)=    0.0000008098 RMS(Int)=    0.0000004830
 Iter   2:  RMS(Cart)=    0.0000000009 RMS(Int)=    0.0000000006
done
Storing new coordinates                 .... done

                                .--------------------.
          ----------------------|Geometry convergence|-------------------------
          Item                value                   Tolerance       Converged
          ---------------------------------------------------------------------
          Energy change      -0.0000039111            0.0000050000      YES
          RMS gradient        0.0000499211            0.0001000000      YES
          MAX gradient        0.0004623876            0.0003000000      NO
          RMS step            0.0006961513            0.0020000000      YES
          MAX step            0.0043433159            0.0040000000      NO
          ........................................................
          Max(Bonds)      0.0023      Max(Angles)    0.07
          Max(Dihed)        0.10      Max(Improp)    0.00
          ---------------------------------------------------------------------

The optimization has not yet converged - more geometry cycles are needed


    ---------------------------------------------------------------------------
                         Redundant Internal Coordinates
                            (Angstroem and degrees)

        Definition                    Value    dE/dq     Step     New-Value
    ----------------------------------------------------------------------------
     1. B(C   1,C   0)                1.5347 -0.000005  0.0001    1.5348   
     2. B(C   4,C   2)                1.5370 -0.000024  0.0001    1.5370   
     3. B(C   4,C   1)                1.5251 -0.000017  0.0001    1.5251   
     4. B(H   5,C   2)                1.0920  0.000023 -0.0001    1.0919   
     5. B(H   6,C   2)                1.0917  0.000019 -0.0001    1.0916   
     6. B(C   7,C   0)                1.5372 -0.000041  0.0001    1.5373   
     7. B(H   8,C   1)                1.0907  0.000022 -0.0001    1.0906   
     8. B(H   9,C   1)                1.0919  0.000020 -0.0001    1.0918   
     9. B(C  10,C   7)                1.5165  0.000037 -0.0001    1.5164   
    10. B(C  10,H   3)                1.0913  0.000048 -0.0002    1.0912   
    11. B(C  10,C   2)                1.5257  0.000047 -0.0002    1.5255   
    12. B(H  11,C   7)                1.0919  0.000029 -0.0001    1.0918   
    13. B(H  12,C   7)                1.0915  0.000031 -0.0001    1.0914   
    14. B(H  13,C   4)                1.0904  0.000020 -0.0001    1.0903   
    15. B(H  14,C   4)                1.0912  0.000018 -0.0001    1.0911   
    16. B(H  15,C   0)                1.0912  0.000016 -0.0001    1.0912   
    17. B(H  16,C   0)                1.0907  0.000023 -0.0001    1.0906   
    18. B(Br 17,C  10)                1.9932 -0.000462  0.0023    1.9955   
    19. A(H  15,C   0,H  16)          107.50 -0.000011    0.01    107.51   
    20. A(C   1,C   0,H  16)          109.96 -0.000004    0.01    109.96   
    21. A(C   1,C   0,C   7)          111.74 -0.000014   -0.01    111.73   
    22. A(C   7,C   0,H  16)          108.51  0.000022   -0.01    108.50   
    23. A(C   7,C   0,H  15)          109.73  0.000013   -0.00    109.72   
    24. A(C   1,C   0,H  15)          109.31 -0.000006    0.01    109.32   
    25. A(C   0,C   1,H   8)          109.68 -0.000011    0.00    109.69   
    26. A(H   8,C   1,H   9)          107.39 -0.000008    0.02    107.41   
    27. A(C   4,C   1,H   9)          109.02 -0.000009    0.00    109.02   
    28. A(C   0,C   1,H   9)          110.26 -0.000001   -0.00    110.26   
    29. A(C   4,C   1,H   8)          110.03  0.000002   -0.00    110.03   
    30. A(C   0,C   1,C   4)          110.40  0.000026   -0.02    110.38   
    31. A(C   4,C   2,H   5)          110.48  0.000003    0.01    110.48   
    32. A(C   4,C   2,C  10)          110.49  0.000030   -0.04    110.46   
    33. A(H   6,C   2,C  10)          110.02  0.000020   -0.00    110.01   
    34. A(H   5,C   2,H   6)          107.46  0.000003    0.01    107.46   
    35. A(C   4,C   2,H   6)          109.09 -0.000040    0.02    109.11   
    36. A(H   5,C   2,C  10)          109.25 -0.000016    0.00    109.26   
    37. A(H  13,C   4,H  14)          107.55 -0.000014    0.02    107.57   
    38. A(C   1,C   4,H  14)          108.84 -0.000001    0.00    108.84   
    39. A(C   2,C   4,H  13)          109.29  0.000020   -0.01    109.27   
    40. A(C   1,C   4,H  13)          110.36  0.000001   -0.00    110.36   
    41. A(C   2,C   4,H  14)          110.01 -0.000011    0.01    110.02   
    42. A(C   1,C   4,C   2)          110.73  0.000004   -0.01    110.72   
    43. A(H  11,C   7,H  12)          107.59 -0.000000    0.02    107.61   
    44. A(C  10,C   7,H  12)          110.66 -0.000031    0.02    110.67   
    45. A(C   0,C   7,H  12)          109.94  0.000014   -0.00    109.93   
    46. A(C  10,C   7,H  11)          108.94  0.000003    0.00    108.94   
    47. A(C   0,C   7,H  11)          110.61 -0.000036    0.02    110.63   
    48. A(C   0,C   7,C  10)          109.08  0.000049   -0.05    109.04   
    49. A(C   2,C  10,H   3)          111.49 -0.000016    0.02    111.51   
    50. A(C   7,C  10,Br 17)          110.24  0.000011    0.00    110.25   
    51. A(H   3,C  10,C   7)          110.14 -0.000021    0.02    110.16   
    52. A(H   3,C  10,Br 17)          103.43  0.000058   -0.07    103.36   
    53. A(C   2,C  10,Br 17)          109.90  0.000010    0.00    109.90   
    54. A(C   2,C  10,C   7)          111.37 -0.000036    0.01    111.38   
    55. D(H   9,C   1,C   0,H  15)     32.58  0.000002   -0.01     32.57   
    56. D(H   8,C   1,C   0,H  15)    -85.48  0.000019   -0.03    -85.51   
    57. D(H   8,C   1,C   0,C   7)    152.87  0.000016   -0.02    152.84   
    58. D(C   4,C   1,C   0,H  16)    -89.10 -0.000012    0.01    -89.10   
    59. D(H   9,C   1,C   0,H  16)    150.37 -0.000017    0.02    150.38   
    60. D(C   4,C   1,C   0,C   7)     31.46  0.000004   -0.01     31.44   
    61. D(C   4,C   1,C   0,H  15)    153.11  0.000007   -0.02    153.09   
    62. D(H   9,C   1,C   0,C   7)    -89.07 -0.000001   -0.00    -89.07   
    63. D(H   8,C   1,C   0,H  16)     32.31 -0.000000   -0.01     32.30   
    64. D(H  13,C   4,C   1,H   8)     52.20 -0.000017   -0.01     52.20   
    65. D(C   1,C   4,C   2,C  10)     30.21 -0.000021    0.03     30.24   
    66. D(H  13,C   4,C   2,H   5)     30.96 -0.000006    0.03     30.99   
    67. D(H  13,C   4,C   2,C  10)    151.98 -0.000004    0.01    151.99   
    68. D(H  13,C   4,C   1,H   9)    -65.32 -0.000002   -0.03    -65.35   
    69. D(H  13,C   4,C   1,C   0)    173.41 -0.000012   -0.02    173.39   
    70. D(C   2,C   4,C   1,H   9)     55.82  0.000026   -0.06     55.77   
    71. D(C   2,C   4,C   1,C   0)    -65.45  0.000017   -0.04    -65.49   
    72. D(C   1,C   4,C   2,H   6)    151.28 -0.000003    0.02    151.29   
    73. D(C   1,C   4,C   2,H   5)    -90.81 -0.000022    0.05    -90.77   
    74. D(H  14,C   4,C   2,H   6)     30.92  0.000002    0.02     30.94   
    75. D(H  14,C   4,C   2,H   5)    148.83 -0.000017    0.05    148.88   
    76. D(H  13,C   4,C   2,H   6)    -86.95  0.000013    0.00    -86.95   
    77. D(H  14,C   4,C   1,H   9)    176.87  0.000015   -0.05    176.82   
    78. D(C   2,C   4,C   1,H   8)    173.35  0.000012   -0.03    173.31   
    79. D(H  14,C   4,C   1,H   8)    -65.60  0.000000   -0.03    -65.64   
    80. D(H  14,C   4,C   1,C   0)     55.60  0.000005   -0.04     55.56   
    81. D(H  14,C   4,C   2,C  10)    -90.15 -0.000015    0.03    -90.12   
    82. D(H  11,C   7,C   0,C   1)    -88.29 -0.000016    0.06    -88.23   
    83. D(C  10,C   7,C   0,H  16)    152.93 -0.000003    0.04    152.96   
    84. D(C  10,C   7,C   0,H  15)    -89.89  0.000004    0.04    -89.85   
    85. D(C  10,C   7,C   0,C   1)     31.52 -0.000003    0.04     31.57   
    86. D(H  12,C   7,C   0,H  16)    -85.57 -0.000001    0.02    -85.55   
    87. D(H  12,C   7,C   0,H  15)     31.62  0.000006    0.03     31.64   
    88. D(H  12,C   7,C   0,C   1)    153.03 -0.000001    0.03    153.06   
    89. D(H  11,C   7,C   0,H  16)     33.12 -0.000015    0.05     33.17   
    90. D(H  11,C   7,C   0,H  15)    150.30 -0.000008    0.06    150.36   
    91. D(Br 17,C  10,C   7,H  12)     48.89  0.000019   -0.07     48.82   
    92. D(Br 17,C  10,C   7,H  11)    -69.21  0.000036   -0.10    -69.31   
    93. D(Br 17,C  10,C   7,C   0)    169.95  0.000049   -0.10    169.86   
    94. D(H   3,C  10,C   7,H  12)    -64.62 -0.000046   -0.00    -64.63   
    95. D(H   3,C  10,C   7,H  11)    177.28 -0.000029   -0.03    177.25   
    96. D(H   3,C  10,C   7,C   0)     56.44 -0.000017   -0.03     56.41   
    97. D(C   2,C  10,C   7,H  12)    171.15  0.000014   -0.06    171.09   
    98. D(C   2,C  10,C   7,H  11)     53.05  0.000031   -0.09     52.97   
    99. D(C   2,C  10,C   7,C   0)    -67.79  0.000044   -0.08    -67.87   
   100. D(Br 17,C  10,C   2,H   6)     36.09 -0.000025    0.05     36.14   
   101. D(Br 17,C  10,C   2,H   5)    -81.64 -0.000030    0.04    -81.61   
   102. D(Br 17,C  10,C   2,C   4)    156.61 -0.000042    0.05    156.66   
   103. D(C   7,C  10,C   2,H   6)    -86.36 -0.000021    0.03    -86.33   
   104. D(C   7,C  10,C   2,H   5)    155.90 -0.000026    0.02    155.92   
   105. D(C   7,C  10,C   2,C   4)     34.15 -0.000039    0.04     34.19   
   106. D(H   3,C  10,C   2,H   6)    150.17  0.000043   -0.02    150.15   
   107. D(H   3,C  10,C   2,H   5)     32.43  0.000038   -0.03     32.40   
   108. D(H   3,C  10,C   2,C   4)    -89.31  0.000026   -0.02    -89.33   
    ----------------------------------------------------------------------------

         *************************************************************
         *                GEOMETRY OPTIMIZATION CYCLE   3            *
         *************************************************************
      -----------------------------------------------------------      
     |                   =====================                   |     
     |                           x T B                           |     
     |                   =====================                   |     
     |                         S. Grimme                         |     
     |          Mulliken Center for Theoretical Chemistry        |     
     |                    University of Bonn                     |     
      -----------------------------------------------------------      

   * xtb version 6.4.0 (d4b70c2) compiled by 'ehlert@majestix' on 2021-02-01

   xtb is free software: you can redistribute it and/or modify it under
   the terms of the GNU Lesser General Public License as published by
   the Free Software Foundation, either version 3 of the License, or
   (at your option) any later version.
   
   xtb is distributed in the hope that it will be useful,
   but WITHOUT ANY WARRANTY; without even the implied warranty of
   MERCHANTABILITY or FITNESS FOR A PARTICULAR PURPOSE.  See the
   GNU Lesser General Public License for more details.
   
   Cite this work as:
   * C. Bannwarth, E. Caldeweyher, S. Ehlert, A. Hansen, P. Pracht,
     J. Seibert, S. Spicher, S. Grimme, WIREs Comput. Mol. Sci., 2020,
     e01493. DOI: 10.1002/wcms.1493
   
   for GFN2-xTB:
   * C. Bannwarth, S. Ehlert and S. Grimme., J. Chem. Theory Comput., 2019,
     15, 1652-1671. DOI: 10.1021/acs.jctc.8b01176
   for GFN1-xTB:
   * S. Grimme, C. Bannwarth, P. Shushkov, J. Chem. Theory Comput., 2017,
     13, 1989-2009. DOI: 10.1021/acs.jctc.7b00118
   for GFN0-xTB:
   * P. Pracht, E. Caldeweyher, S. Ehlert, S. Grimme, ChemRxiv, 2019, preprint.
     DOI: 10.26434/chemrxiv.8326202.v1
   for GFN-FF:
   * S. Spicher and S. Grimme, Angew. Chem. Int. Ed., 2020, 59, 15665-15673.
[...]
                 42         43         44         45         46         47    
      0      -0.017195   0.001449  -0.010573   0.001111  -0.003656   0.010955
      1       0.034294   0.001494  -0.010722   0.002484  -0.010275   0.011395
      2       0.000547   0.006760  -0.046835   0.007965  -0.026639   0.047515
      3      -0.035794  -0.007000   0.030526   0.004962  -0.024510  -0.001224
      4      -0.007137   0.002708  -0.009702  -0.001655   0.006665  -0.000273
      5       0.031011  -0.014472   0.051429   0.011907  -0.040887   0.006279
      6       0.011202   0.005115   0.002524  -0.011398  -0.004973   0.006928
      7      -0.022366   0.007723   0.004433  -0.018155  -0.006487   0.010207
      8      -0.002802  -0.025146  -0.014264   0.060986   0.023962  -0.034284
      9      -0.026874   0.091823   0.025260   0.029695   0.020343  -0.000305
     10      -0.004961  -0.134660  -0.036158  -0.041398  -0.028078   0.000249
     11      -0.001529  -0.876314  -0.228041  -0.287499  -0.178128   0.005429
     12      -0.020354  -0.001531   0.000307   0.007680   0.001249   0.008358
     13      -0.026272  -0.005544   0.003509   0.026967   0.005898   0.030482
     14      -0.028392   0.007519  -0.009658  -0.035764  -0.006920  -0.046238
     15      -0.112099   0.028831   0.013752  -0.064920  -0.022859   0.032257
     16       0.112990  -0.168437  -0.089800   0.395009   0.147834  -0.207889
     17       0.116060   0.185515   0.100530  -0.443686  -0.165007   0.230914
     18      -0.058036  -0.092935  -0.047530   0.208049   0.085535  -0.118760
     19       0.152316   0.073495   0.036876  -0.158688  -0.065737   0.089247
     20      -0.111726   0.143460   0.073649  -0.312257  -0.129919   0.181779
     21       0.017206  -0.002987   0.005466  -0.005951   0.013571   0.007676
     22       0.024031  -0.009741   0.015976  -0.015326   0.037617   0.020810
     23      -0.028117  -0.013054   0.019072  -0.017445   0.046619   0.028108
     24       0.055923   0.058829  -0.291070  -0.035882   0.239090   0.037127
     25       0.081337  -0.000311   0.002526  -0.000122  -0.002824  -0.000995
     26      -0.359851   0.003414  -0.029703  -0.000412   0.026454   0.010205
     27       0.372902   0.025481  -0.086854  -0.021958   0.065421  -0.014843
     28       0.025026  -0.031956   0.112186   0.026601  -0.082926   0.014258
     29      -0.045206   0.180124  -0.626399  -0.162945   0.471711  -0.092180
     30       0.005957  -0.005842  -0.001278  -0.002231  -0.000852   0.000572
     31      -0.000597   0.011201   0.003321   0.002419   0.002888   0.000790
     32       0.001202   0.068897   0.018541   0.023842   0.016590  -0.000522
     33      -0.178844  -0.012211   0.018499  -0.015728   0.040471   0.021178
     34      -0.272017   0.030561  -0.041460   0.035819  -0.095611  -0.055759
     35       0.037331   0.175435  -0.215912   0.197365  -0.518710  -0.298806
     36      -0.081652   0.050664  -0.088141   0.088009  -0.210807  -0.114280
     37      -0.013750   0.088477  -0.155722   0.153962  -0.372228  -0.201370
     38       0.312821   0.012822  -0.026094   0.027433  -0.063430  -0.034637
     39       0.086487   0.027246  -0.007492  -0.136766  -0.032631  -0.148442
     40       0.011591   0.048199  -0.012602  -0.244925  -0.059634  -0.265895
     41       0.336740  -0.005845  -0.002728   0.035633   0.009581   0.038088
     42       0.197865  -0.009768   0.009900   0.040315   0.007313   0.045307
     43       0.294671   0.020553  -0.028127  -0.088440  -0.014956  -0.109687
     44       0.042948  -0.099307   0.141163   0.428423   0.065986   0.526764
     45       0.158225   0.007221  -0.036723   0.007626  -0.023846   0.034120
     46      -0.179259  -0.043761   0.278427  -0.054924   0.196100  -0.275243
     47       0.166470  -0.051976   0.334414  -0.068990   0.245549  -0.331925
     48       0.066507  -0.026814   0.175890  -0.021161   0.063788  -0.168768
     49      -0.231460   0.023072  -0.148097   0.016933  -0.054341   0.137839
     50      -0.169193  -0.039501   0.259061  -0.028210   0.083302  -0.246163
     51      -0.000201  -0.000249  -0.000087  -0.000099  -0.000042  -0.000012
     52       0.000003   0.000017   0.000009  -0.000011  -0.000003   0.000006
     53      -0.000107   0.000110   0.000027   0.000020   0.000012   0.000004
                 48         49         50         51         52         53    
      0       0.000849   0.005191  -0.022283   0.008987  -0.021599   0.014089
      1      -0.011968  -0.027649   0.019706  -0.007362   0.032092  -0.019631
      2      -0.014221  -0.026313  -0.027778   0.018076  -0.008685   0.006746
      3      -0.019288  -0.031875   0.003275  -0.032194  -0.017176   0.039216
      4       0.000889   0.001056   0.004570  -0.004394   0.000206   0.001798
      5      -0.002676  -0.011413  -0.020775   0.023367   0.005192  -0.004176
      6       0.031235  -0.012202   0.002459  -0.005825  -0.007374  -0.005601
      7      -0.037974   0.030012   0.005170   0.004104   0.012065   0.010099
      8      -0.023571  -0.012412  -0.013920   0.011361   0.003953   0.001950
      9      -0.005739  -0.011651  -0.006511   0.008452   0.000593  -0.000672
     10       0.007712   0.018153   0.008387  -0.012860   0.000186  -0.000648
     11       0.058583   0.116747   0.063209  -0.081385  -0.004328  -0.001786
     12       0.014436   0.003625   0.003810   0.003074   0.019195   0.024380
     13       0.023861   0.018513   0.013127  -0.001615   0.027319   0.034358
     14      -0.001995  -0.026556  -0.020354   0.024829   0.016749   0.015585
     15      -0.020626   0.036665   0.013968  -0.003719   0.009415   0.008504
     16       0.232253  -0.295119  -0.093759   0.006743  -0.084480  -0.074485
     17      -0.305568   0.354731   0.103826  -0.000352   0.107153   0.092764
     18      -0.361378   0.115683  -0.043794   0.081306   0.090951   0.068638
     19       0.245160  -0.071180   0.033169  -0.056728  -0.058957  -0.043064
     20       0.597577  -0.204702   0.065676  -0.132059  -0.151036  -0.113133
     21      -0.001332  -0.001444  -0.025748  -0.016039   0.011478  -0.003872
     22      -0.006169  -0.012737  -0.037006  -0.018182   0.017598  -0.005372
     23      -0.012008  -0.028540   0.012078   0.030137  -0.009289   0.005708
     24       0.255690   0.406628  -0.085720   0.477563   0.240709  -0.526590
     25      -0.007791  -0.011094   0.003666  -0.014613  -0.005164   0.014488
     26       0.049284   0.074917  -0.025579   0.105926   0.052333  -0.106619
     27      -0.013426  -0.007775   0.046449  -0.079759  -0.027560   0.045032
     28       0.003844  -0.008611  -0.046088   0.068473   0.022198  -0.029228
     29      -0.019230   0.048877   0.268125  -0.386280  -0.115425   0.167666
     30       0.001042   0.000225  -0.000276  -0.001115   0.000159  -0.000479
     31      -0.002083  -0.000710  -0.002057   0.000447   0.000502  -0.000010
     32      -0.006015  -0.010499  -0.004860   0.007744   0.000307   0.000218
     33      -0.008734  -0.021492   0.005431   0.020848  -0.006123   0.003535
     34       0.025770   0.067772  -0.082591  -0.109077   0.047217  -0.022390
     35       0.135650   0.339075  -0.293265  -0.464423   0.181747  -0.092211
     36       0.028035   0.047976   0.301463   0.180652  -0.144732   0.047321
     37       0.047950   0.083550   0.547965   0.330385  -0.259454   0.084560
     38       0.006641   0.007186   0.134120   0.092171  -0.066726   0.023100
     39      -0.176403  -0.089474  -0.064682  -0.025470  -0.227980  -0.277848
     40      -0.328547  -0.161091  -0.116642  -0.049666  -0.422765  -0.517213
     41       0.072074   0.024854   0.016897   0.023942   0.105017   0.124062
     42       0.003257   0.025363   0.019904  -0.023619  -0.016005  -0.013392
     43       0.025387  -0.061247  -0.046293   0.076136   0.087413   0.090828
     44      -0.052173   0.298641   0.224576  -0.323156  -0.313412  -0.320748
     45      -0.015398  -0.031013  -0.004662   0.004153   0.012911  -0.005950
     46       0.148868   0.316314  -0.041654  -0.015787  -0.212494   0.125349
     47       0.187962   0.404694  -0.080880  -0.007342  -0.294766   0.173667
     48      -0.002311  -0.042392   0.272717  -0.131989   0.252571  -0.161500
     49      -0.003075   0.021565  -0.208345   0.099471  -0.183954   0.118834
     50      -0.012483  -0.084368   0.424660  -0.202991   0.402105  -0.256237
     51      -0.000051   0.000078   0.000093   0.000067  -0.000028   0.000073
     52       0.000012  -0.000001   0.000004  -0.000009   0.000006  -0.000002
     53       0.000030  -0.000020  -0.000005  -0.000006  -0.000009  -0.000009


-----------
IR SPECTRUM  
-----------

 Mode    freq (cm**-1)   T**2         TX         TY         TZ
-------------------------------------------------------------------
   6:        89.40    0.000000  (  0.000000   0.000000   0.000000)
   7:       156.88    0.000000  (  0.000000   0.000000   0.000000)
   8:       210.58    0.000000  (  0.000000   0.000000   0.000000)
   9:       232.21    0.000000  (  0.000000   0.000000   0.000000)
  10:       260.44    0.000000  (  0.000000   0.000000   0.000000)
  11:       398.87    0.000000  (  0.000000   0.000000   0.000000)
  12:       460.33    0.000000  (  0.000000   0.000000   0.000000)
  13:       515.00    0.000000  (  0.000000   0.000000   0.000000)
  14:       667.42    0.000000  (  0.000000   0.000000   0.000000)
  15:       798.90    0.000000  (  0.000000   0.000000   0.000000)
  16:       845.66    0.000000  (  0.000000   0.000000   0.000000)
  17:       904.68    0.000000  (  0.000000   0.000000   0.000000)
  18:       926.80    0.000000  (  0.000000   0.000000   0.000000)
  19:       947.73    0.000000  (  0.000000   0.000000   0.000000)
  20:       968.97    0.000000  (  0.000000   0.000000   0.000000)
  21:       982.80    0.000000  (  0.000000   0.000000   0.000000)
  22:      1090.45    0.000000  (  0.000000   0.000000   0.000000)
  23:      1107.28    0.000000  (  0.000000   0.000000   0.000000)
  24:      1117.82    0.000000  (  0.000000   0.000000   0.000000)
  25:      1131.69    0.000000  (  0.000000   0.000000   0.000000)
  26:      1151.89    0.000000  (  0.000000   0.000000   0.000000)
  27:      1198.82    0.000000  (  0.000000   0.000000   0.000000)
  28:      1208.45    0.000000  (  0.000000   0.000000   0.000000)
  29:      1216.62    0.000000  (  0.000000   0.000000   0.000000)
  30:      1248.41    0.000000  (  0.000000   0.000000   0.000000)
  31:      1259.05    0.000000  (  0.000000   0.000000   0.000000)
  32:      1287.56    0.000000  (  0.000000   0.000000   0.000000)
  33:      1328.85    0.000000  (  0.000000   0.000000   0.000000)
  34:      1332.19    0.000000  (  0.000000   0.000000   0.000000)
  35:      1336.02    0.000000  (  0.000000   0.000000   0.000000)
  36:      1342.53    0.000000  (  0.000000   0.000000   0.000000)
  37:      1351.78    0.000000  (  0.000000   0.000000   0.000000)
  38:      1479.98    0.000000  (  0.000000   0.000000   0.000000)
  39:      1481.39    0.000000  (  0.000000   0.000000   0.000000)
  40:      1489.78    0.000000  (  0.000000   0.000000   0.000000)
  41:      1496.42    0.000000  (  0.000000   0.000000   0.000000)
  42:      1506.95    0.000000  (  0.000000   0.000000   0.000000)
  43:      2955.29    0.000000  (  0.000000   0.000000   0.000000)
  44:      2965.81    0.000000  (  0.000000   0.000000   0.000000)
  45:      2969.68    0.000000  (  0.000000   0.000000   0.000000)
  46:      2973.62    0.000000  (  0.000000   0.000000   0.000000)
  47:      2981.32    0.000000  (  0.000000   0.000000   0.000000)
  48:      2986.41    0.000000  (  0.000000   0.000000   0.000000)
  49:      2987.75    0.000000  (  0.000000   0.000000   0.000000)
  50:      2988.22    0.000000  (  0.000000   0.000000   0.000000)
  51:      2993.84    0.000000  (  0.000000   0.000000   0.000000)
  52:      2997.67    0.000000  (  0.000000   0.000000   0.000000)
  53:      3002.21    0.000000  (  0.000000   0.000000   0.000000)

The first frequency considered to be a vibration is 6
The total number of vibrations considered is 48


--------------------------
THERMOCHEMISTRY AT 298.15K
--------------------------

Temperature         ... 298.15 K
Pressure            ... 1.00 atm
Total Mass          ... 163.05 AMU

Throughout the following assumptions are being made:
  (1) The electronic state is orbitally nondegenerate
  (2) There are no thermally accessible electronically excited states
  (3) Hindered rotations indicated by low frequency modes are not
      treated as such but are treated as vibrations and this may
      cause some error
  (4) All equations used are the standard statistical mechanics
      equations for an ideal gas
  (5) All vibrations are strictly harmonic

freq.      89.40  E(vib)   ...       0.47 
freq.     156.88  E(vib)   ...       0.40 
freq.     210.58  E(vib)   ...       0.34 
freq.     232.21  E(vib)   ...       0.32 
freq.     260.44  E(vib)   ...       0.30 
freq.     398.87  E(vib)   ...       0.19 
freq.     460.33  E(vib)   ...       0.16 
freq.     515.00  E(vib)   ...       0.13 
freq.     667.42  E(vib)   ...       0.08 
freq.     798.90  E(vib)   ...       0.05 
freq.     845.66  E(vib)   ...       0.04 
freq.     904.68  E(vib)   ...       0.03 
freq.     926.80  E(vib)   ...       0.03 
freq.     947.73  E(vib)   ...       0.03 
freq.     968.97  E(vib)   ...       0.03 
freq.     982.80  E(vib)   ...       0.02 
freq.    1090.45  E(vib)   ...       0.02 
freq.    1107.28  E(vib)   ...       0.02 
freq.    1117.82  E(vib)   ...       0.01 
freq.    1131.69  E(vib)   ...       0.01 
freq.    1151.89  E(vib)   ...       0.01 
freq.    1198.82  E(vib)   ...       0.01 
freq.    1208.45  E(vib)   ...       0.01 
freq.    1216.62  E(vib)   ...       0.01 
freq.    1248.41  E(vib)   ...       0.01 
freq.    1259.05  E(vib)   ...       0.01 
freq.    1287.56  E(vib)   ...       0.01 
freq.    1328.85  E(vib)   ...       0.01 
freq.    1332.19  E(vib)   ...       0.01 
freq.    1336.02  E(vib)   ...       0.01 
freq.    1342.53  E(vib)   ...       0.01 
freq.    1351.78  E(vib)   ...       0.01 
freq.    1479.98  E(vib)   ...       0.00 
freq.    1481.39  E(vib)   ...       0.00 
freq.    1489.78  E(vib)   ...       0.00 
freq.    1496.42  E(vib)   ...       0.00 
freq.    1506.95  E(vib)   ...       0.00 
freq.    2955.29  E(vib)   ...       0.00 
freq.    2965.81  E(vib)   ...       0.00 
freq.    2969.68  E(vib)   ...       0.00 
freq.    2973.62  E(vib)   ...       0.00 
freq.    2981.32  E(vib)   ...       0.00 
freq.    2986.41  E(vib)   ...       0.00 
freq.    2987.75  E(vib)   ...       0.00 
freq.    2988.22  E(vib)   ...       0.00 
freq.    2993.84  E(vib)   ...       0.00 
freq.    2997.67  E(vib)   ...       0.00 
freq.    3002.21  E(vib)   ...       0.00 

------------
INNER ENERGY
------------

The inner energy is: U= E(el) + E(ZPE) + E(vib) + E(rot) + E(trans)
    E(el)   - is the total energy from the electronic structure calculation
              = E(kin-el) + E(nuc-el) + E(el-el) + E(nuc-nuc)
    E(ZPE)  - the the zero temperature vibrational energy from the frequency calculation
    E(vib)  - the the finite temperature correction to E(ZPE) due to population
              of excited vibrational states
    E(rot)  - is the rotational thermal energy
    E(trans)- is the translational thermal energy

Summary of contributions to the inner energy U:
Electronic energy                ...    -22.56723330 Eh
Zero point energy                ...      0.15795093 Eh      99.12 kcal/mol
Thermal vibrational correction   ...      0.00446979 Eh       2.80 kcal/mol
Thermal rotational correction    ...      0.00141627 Eh       0.89 kcal/mol
Thermal translational correction ...      0.00141627 Eh       0.89 kcal/mol
-----------------------------------------------------------------------
Total thermal energy                    -22.40198004 Eh


Summary of corrections to the electronic energy:
(perhaps to be used in another calculation)
Total thermal correction                  0.00730233 Eh       4.58 kcal/mol
Non-thermal (ZPE) correction              0.15795093 Eh      99.12 kcal/mol
-----------------------------------------------------------------------
Total correction                          0.16525326 Eh     103.70 kcal/mol


--------
ENTHALPY
--------

The enthalpy is H = U + kB*T
                kB is Boltzmann's constant
Total free energy                 ...    -22.40198004 Eh 
Thermal Enthalpy correction       ...      0.00094421 Eh       0.59 kcal/mol
-----------------------------------------------------------------------
Total Enthalpy                    ...    -22.40103583 Eh


Note: Only C1 symmetry has been detected, increase convergence thresholds 
      if your molecule has a higher symmetry. Symmetry factor of 1.0 is   
      used for the rotational entropy correction. 
 

Note: Rotational entropy computed according to Herzberg 
Infrared and Raman Spectra, Chapter V,1, Van Nostrand Reinhold, 1945 
Point Group:  C1, Symmetry Number:   1  
Rotational constants in cm-1:     0.142037     0.029694     0.026026 

Vibrational entropy computed according to the QRRHO of S. Grimme
Chem.Eur.J. 2012 18 9955


-------
ENTROPY
-------

The entropy contributions are T*S = T*(S(el)+S(vib)+S(rot)+S(trans))
     S(el)   - electronic entropy
     S(vib)  - vibrational entropy
     S(rot)  - rotational entropy
     S(trans)- translational entropy
The entropies will be listed as mutliplied by the temperature to get
units of energy

Electronic entropy                ...      0.00000000 Eh      0.00 kcal/mol
Vibrational entropy               ...      0.00747406 Eh      4.69 kcal/mol
Rotational entropy                ...      0.01381492 Eh      8.67 kcal/mol
Translational entropy             ...      0.01956367 Eh     12.28 kcal/mol
-----------------------------------------------------------------------
Final entropy term                ...      0.04085264 Eh     25.64 kcal/mol

In case the symmetry of your molecule has not been determined correctly
or in case you have a reason to use a different symmetry number we print 
out the resulting rotational entropy values for sn=1,12 :
 --------------------------------------------------------
|  sn= 1 | S(rot)=       0.01381492 Eh      8.67 kcal/mol|
|  sn= 2 | S(rot)=       0.01316046 Eh      8.26 kcal/mol|
|  sn= 3 | S(rot)=       0.01277763 Eh      8.02 kcal/mol|
|  sn= 4 | S(rot)=       0.01250600 Eh      7.85 kcal/mol|
|  sn= 5 | S(rot)=       0.01229532 Eh      7.72 kcal/mol|
|  sn= 6 | S(rot)=       0.01212317 Eh      7.61 kcal/mol|
|  sn= 7 | S(rot)=       0.01197762 Eh      7.52 kcal/mol|
|  sn= 8 | S(rot)=       0.01185155 Eh      7.44 kcal/mol|
|  sn= 9 | S(rot)=       0.01174034 Eh      7.37 kcal/mol|
|  sn=10 | S(rot)=       0.01164086 Eh      7.30 kcal/mol|
|  sn=11 | S(rot)=       0.01155087 Eh      7.25 kcal/mol|
|  sn=12 | S(rot)=       0.01146871 Eh      7.20 kcal/mol|
 --------------------------------------------------------


-------------------
GIBBS FREE ENERGY
-------------------

The Gibbs free energy is G = H - T*S

Total enthalpy                    ...    -22.40103583 Eh 
Total entropy correction          ...     -0.04085264 Eh    -25.64 kcal/mol
-----------------------------------------------------------------------
Final Gibbs free energy         ...    -22.44188847 Eh

For completeness - the Gibbs free energy minus the electronic energy
G-E(el)                           ...      0.12534482 Eh     78.65 kcal/mol


Total Time for Numerical Frequencies  :       108.005 sec

Timings for individual modules:

Sum of individual times         ...        0.737 sec (=   0.012 min)
Geometry relaxation             ...        0.349 sec (=   0.006 min)  47.4 %
XTB module                      ...        0.388 sec (=   0.006 min)  52.6 %
                             ****ORCA TERMINATED NORMALLY****
TOTAL RUN TIME: 0 days 0 hours 1 minutes 49 seconds 721 msec
