      -----------------------------------------------------------      
     |                   =====================                   |     
     |                           x T B                           |     
     |                   =====================                   |     
     |                         S. Grimme                         |     
     |          Mulliken Center for Theoretical Chemistry        |     
     |                    University of Bonn                     |     
      -----------------------------------------------------------      

   * xtb version 6.3.2 (30e43eb) compiled by 'schneider@apollo14' on 2020-08-08

   xtb is free software: you can redistribute it and/or modify it under
   the terms of the GNU Lesser General Public License as published by
   the Free Software Foundation, either version 3 of the License, or
   (at your option) any later version.
   
   xtb is distributed in the hope that it will be useful,
   but WITHOUT ANY WARRANTY; without even the implied warranty of
   MERCHANTABILITY or FITNESS FOR A PARTICULAR PURPOSE.  See the
   GNU Lesser General Public License for more details.
   
   Cite this work as:
   * S. Grimme, C. Bannwarth, P. Shushkov, J. Chem. Theory Comput., 2017,
     13, 1989-2009. DOI: 10.1021/acs.jctc.7b00118
   * C. Bannwarth, S. Ehlert and S. Grimme., J. Chem. Theory Comput., 2019,
     15, 1652-1671. DOI: 10.1021/acs.jctc.8b01176
   * P. Pracht, E. Caldeweyher, S. Ehlert, S. Grimme, ChemRxiv, 2019, preprint.
     DOI: 10.26434/chemrxiv.8326202.v1
   
   for GFN-FF:
   * S. Spicher and S. Grimme, Angew. Chem. Int. Ed., 2020,
     DOI: 10.1002/anie.202004239
   
   for DFT-D4:
   * E. Caldeweyher, C. Bannwarth and S. Grimme, J. Chem. Phys., 2017,
     147, 034112. DOI: 10.1063/1.4993215
   * E. Caldeweyher, S. Ehlert, A. Hansen, H. Neugebauer, S. Spicher,
     C. Bannwarth and S. Grimme, J. Chem. Phys., 2019, 150, 154122.
     DOI: 10.1063/1.5090222
   
   for sTDA-xTB:
   * S. Grimme and C. Bannwarth, J. Chem. Phys., 2016, 145, 054103.
     DOI: 10.1063/1.4959605
   
   in the mass-spec context:
   * V. Asgeirsson, C. Bauer and S. Grimme, Chem. Sci., 2017, 8, 4879.
     DOI: 10.1039/c7sc00601b
   * J. Koopman and S. Grimme, ACS Omega 2019, 4, 12, 15120-15133.
     DOI: 10.1021/acsomega.9b02011
   
   for metadynamics refer to:
   * S. Grimme, J. Chem. Theory Comput., 2019, 155, 2847-2862
     DOI: 10.1021/acs.jctc.9b00143
   
   with help from (in alphabetical order)
   C. Bannwarth, F. Bohle, G. Brandenburg, E. Caldeweyher, M. Checinski,
   S. Dohm, S. Ehlert, S. Ehrlich, F. März, H. Neugebauer, J. Pisarek,
   P. Pracht, P. Shushkov, and S. Spicher.
   
 * started run on 2021/11/10 at 00:40:08.859     

           -------------------------------------------------
          |                Calculation Setup                |
           -------------------------------------------------

          program call               : xtb final.xyz --chrg -1 --gbsa methanol --ohess
          coordinate file            : final.xyz
          omp threads                :                     6
          number of atoms            :                    23
          number of electrons        :                    56
          charge                     :                    -1
          spin                       :                   0.0
          first test random number   :      0.36071959908411

   ID    Z sym.   atoms
    1    6 C      1-3, 5, 8, 11, 20
    2    1 H      4, 6, 7, 9, 10, 12-17, 21-23
    3   35 Br     18
    4    8 O      19

molecular fragmentation (1/2 indicates fragments):
11111111111111111211111
# atoms in fragment 1/2:    22     1
 fragment masses (1/2) :      114.19       79.90
CMA distance (Bohr)    :   9.502
constraining FC (au)   :  0.0500

           -------------------------------------------------
          |                 G F N 2 - x T B                 |
           -------------------------------------------------

        Reference                      10.1021/acs.jctc.8b01176
      * Hamiltonian:
        H0-scaling (s, p, d)           1.850000    2.230000    2.230000
        zeta-weighting                 0.500000
      * Dispersion:
        s8                             2.700000
        a1                             0.520000
        a2                             5.000000
        s9                             5.000000
      * Repulsion:
        kExp                           1.500000    1.000000
        rExp                           1.000000
      * Coulomb:
        alpha                          2.000000
        third order                    shell-resolved
        anisotropic                    true
        a3                             3.000000
        a5                             4.000000
        cn-shift                       1.200000
        cn-exp                         4.000000
        max-rad                        5.000000

      * Solvation model:               GBSA
        Solvent                        methanol
        Parameter file                 internal GFN2-xTB/GBSA
        Dielectric constant                3.2700E+01
        Reference state                gsolv [1 M gas/solution]
        Free energy shift                  3.3569E-03 Eh       2.1065E+00 kcal/mol
        Temperature                        2.9815E+02 K
        Density                            7.9200E-01 kg/L
        Solvent mass                       3.2040E+01 g/mol
        Interaction kernel             Still
        Born radius scaling (c1)           1.6087E+00
        Born radii integrator          GBOBC
        Born offset                        5.6550E-04 a0       1.0686E-03 AA
        H-bond correction              true
        Ion screening                  false
        Surface tension                    1.0000E-05 Eh       1.5569E+01 dyn/cm
        Grid points                               230 per atom
q/qsh data taken from xtbrestart
CAMM data taken from xtbrestart

          ...................................................
          :                      SETUP                      :
          :.................................................:
          :  # basis functions                  56          :
          :  # atomic orbitals                  55          :
          :  # shells                           33          :
          :  # electrons                        56          :
          :  max. iterations                   250          :
          :  Hamiltonian                  GFN2-xTB          :
          :  restarted?                       true          :
          :  GBSA solvation                   true          :
          :  PC potential                    false          :
          :  electronic temp.          300.0000000     K    :
          :  accuracy                    1.0000000          :
          :  -> integral cutoff          0.2500000E+02      :
          :  -> integral neglect         0.1000000E-07      :
          :  -> SCF convergence          0.1000000E-05 Eh   :
          :  -> wf. convergence          0.1000000E-03 e    :
          :  Broyden damping             0.4000000          :
          ...................................................

 iter      E             dE          RMSdq      gap      omega  full diag
   1    -30.6981609 -0.306982E+02  0.407E+00    4.50       0.0  T
   2    -30.7824722 -0.843114E-01  0.239E+00    5.95       1.0  T
   3    -30.7896142 -0.714195E-02  0.143E+00    5.47       1.0  T
   4    -30.7931645 -0.355027E-02  0.804E-01    5.08       1.0  T
   5    -30.7954773 -0.231286E-02  0.511E-01    5.24       1.0  T
   6    -30.7960457 -0.568405E-03  0.300E-01    5.30       1.0  T
   7    -30.7963479 -0.302203E-03  0.671E-02    5.42       1.0  T
   8    -30.7963560 -0.809488E-05  0.282E-02    5.42       1.0  T
   9    -30.7963591 -0.309246E-05  0.125E-02    5.42       1.7  T
  10    -30.7963598 -0.695099E-06  0.614E-03    5.42       3.4  T
  11    -30.7963600 -0.151416E-06  0.145E-03    5.42      14.4  T
  12    -30.7963600 -0.103675E-07  0.583E-04    5.42      35.8  T
  13    -30.7963600 -0.985338E-09  0.191E-04    5.42     108.9  T

   *** convergence criteria satisfied after 13 iterations ***

         #    Occupation            Energy/Eh            Energy/eV
      -------------------------------------------------------------
         1        2.0000           -0.7404459             -20.1486
       ...           ...                  ...                  ...
        22        2.0000           -0.4233111             -11.5189
        23        2.0000           -0.4111763             -11.1887
        24        2.0000           -0.3945977             -10.7376
        25        2.0000           -0.3689102             -10.0386
        26        2.0000           -0.3320300              -9.0350
        27        2.0000           -0.3319346              -9.0324
        28        2.0000           -0.3313526              -9.0166 (HOMO)
        29                         -0.1321823              -3.5969 (LUMO)
        30                         -0.0907774              -2.4702
        31                         -0.0345455              -0.9400
        32                          0.0532963               1.4503
        33                          0.0771001               2.0980
       ...                                ...                  ...
        55                          0.2959310               8.0527
      -------------------------------------------------------------
                  HL-Gap            0.1991703 Eh            5.4197 eV
             Fermi-level           -0.2317675 Eh           -6.3067 eV

 SCC (total)                   0 d,  0 h,  0 min,  0.031 sec
 SCC setup                      ...        0 min,  0.002 sec (  5.674%)
 Dispersion                     ...        0 min,  0.000 sec (  0.469%)
 classical contributions        ...        0 min,  0.000 sec (  0.117%)
 integral evaluation            ...        0 min,  0.006 sec ( 19.891%)
 iterations                     ...        0 min,  0.017 sec ( 54.353%)
 molecular gradient             ...        0 min,  0.005 sec ( 17.792%)
 printout                       ...        0 min,  0.001 sec (  1.657%)

         :::::::::::::::::::::::::::::::::::::::::::::::::::::
         ::                     SUMMARY                     ::
         :::::::::::::::::::::::::::::::::::::::::::::::::::::
         :: total energy             -30.530573254181 Eh    ::
         :: total w/o Gsasa/hb       -30.515068300382 Eh    ::
         :: gradient norm              0.198170802786 Eh/a0 ::
         :: HOMO-LUMO gap              5.419698791421 eV    ::
         ::.................................................::
         :: SCC energy               -30.796359977294 Eh    ::
         :: -> isotropic ES            0.201228094605 Eh    ::
         :: -> anisotropic ES          0.008029769777 Eh    ::
         :: -> anisotropic XC          0.014171636088 Eh    ::
         :: -> dispersion             -0.017982822017 Eh    ::
         :: -> Gsolv                  -0.113769098788 Eh    ::
         ::    -> Gborn               -0.098264144989 Eh    ::
         ::    -> Gsasa               -0.012908451605 Eh    ::
         ::    -> Ghb                 -0.005953431717 Eh    ::
         ::    -> Gshift               0.003356929523 Eh    ::
         :: repulsion energy           0.265645843485 Eh    ::
         :: add. restraining           0.000000000000 Eh    ::
         :: total charge              -1.000000000000 e     ::
         :::::::::::::::::::::::::::::::::::::::::::::::::::::

      ----------------------------------------------------------- 
     |                   =====================                   |
     |                        A N C O P T                        |
     |                   =====================                   |
     |               Approximate Normal Coordinate               |
     |                Rational Function Optimizer                |
      ----------------------------------------------------------- 

          ...................................................
          :                      SETUP                      :
          :.................................................:
          :   optimization level            normal          :
          :   max. optcycles                   200          :
          :   ANC micro-cycles                  20          :
          :   degrees of freedom                63          :
          :.................................................:
          :   RF solver                   davidson          :
          :   write xtbopt.log                true          :
          :   linear?                        false          :
          :   energy convergence         0.5000000E-05 Eh   :
          :   grad. convergence          0.1000000E-02 Eh/α :
          :   maximium RF displ.         1.0000000          :
          :   Hlow (freq-cutoff)         0.1000000E-01      :
          :   Hmax (freq-cutoff)         5.0000000          :
          :   S6 in model hess.         20.0000000          :
          ...................................................

generating ANC from model Hessian ...
Using Lindh-Hessian (1995)
 Shifting diagonal of input Hessian by    1.0845452690627703E-002
 Lowest  eigenvalues of input Hessian
    0.010000    0.010692    0.010790    0.000000    0.000000    0.000000
    0.000000    0.000000    0.000000    0.012650    0.013871    0.015212
    0.017916    0.019436    0.025163    0.025543    0.027339    0.030104
 Highest eigenvalues
    1.075664    1.130280    1.167450    1.215215    1.238735    1.300898


........................................................................
.............................. CYCLE    1 ..............................
........................................................................
   1    -30.7963600 -0.307964E+02  0.125E-04    5.42       0.0  T
   2    -30.7963600 -0.191243E-10  0.962E-05    5.42     216.7  T
   3    -30.7963600 -0.173657E-10  0.403E-05    5.42     517.1  T
     SCC iter.                  ...        0 min,  0.005 sec
     gradient                   ...        0 min,  0.018 sec
 * total energy  :   -30.5305733 Eh     change       -0.1404814E-09 Eh
   gradient norm :     0.1981714 Eh/α   predicted     0.0000000E+00 (-100.00%)
   displ. norm   :     0.6514978 α      lambda       -0.1095763E+00
   maximum displ.:     0.2338402 α      in ANC's #42, #36, #40, ...

........................................................................
.............................. CYCLE    2 ..............................
........................................................................
   1    -30.9036245 -0.309036E+02  0.812E-01    7.03       0.0  T
   2    -30.9039101 -0.285591E-03  0.483E-01    6.98       1.0  T
   3    -30.9038240  0.861721E-04  0.101E-01    7.02       1.0  T
   4    -30.9039683 -0.144357E-03  0.213E-02    6.99       1.0  T
   5    -30.9039693 -0.102656E-05  0.119E-02    6.99       1.7  T
   6    -30.9039696 -0.273442E-06  0.454E-03    6.98       4.6  T
   7    -30.9039697 -0.545470E-07  0.210E-03    6.98       9.9  T
   8    -30.9039697 -0.818590E-08  0.119E-03    6.98      17.5  T
   9    -30.9039697 -0.322663E-08  0.404E-04    6.98      51.6  T
  10    -30.9039697 -0.260922E-09  0.247E-04    6.98      84.4  T
     SCC iter.                  ...        0 min,  0.011 sec
     gradient                   ...        0 min,  0.006 sec
 * total energy  :   -30.6075011 Eh     change       -0.7692784E-01 Eh
   gradient norm :     0.0967407 Eh/α   predicted    -0.7804310E-01 (   1.45%)
   displ. norm   :     0.5746677 α      lambda       -0.4751439E-01
   maximum displ.:     0.2449390 α      in ANC's #31, #25, #27, ...

........................................................................
.............................. CYCLE    3 ..............................
........................................................................
   1    -30.9676722 -0.309677E+02  0.498E-01    8.60       0.0  T
   2    -30.9677320 -0.597450E-04  0.297E-01    8.57       1.0  T
   3    -30.9677538 -0.218370E-04  0.265E-02    8.52       1.0  T
   4    -30.9677558 -0.204204E-05  0.163E-02    8.52       1.3  T
   5    -30.9677564 -0.561707E-06  0.767E-03    8.52       2.7  T
   6    -30.9677567 -0.247625E-06  0.297E-03    8.52       7.0  T
   7    -30.9677567 -0.244869E-07  0.124E-03    8.52      16.8  T
   8    -30.9677567 -0.227623E-08  0.495E-04    8.52      42.1  T
   9    -30.9677567 -0.504947E-09  0.268E-04    8.52      77.9  T
     SCC iter.                  ...        0 min,  0.013 sec
     gradient                   ...        0 min,  0.010 sec
 * total energy  :   -30.6383448 Eh     change       -0.3084367E-01 Eh
   gradient norm :     0.0359184 Eh/α   predicted    -0.3160284E-01 (   2.46%)
   displ. norm   :     0.4846131 α      lambda       -0.1258551E-01
   maximum displ.:     0.1909877 α      in ANC's #10, #14, #15, ...

........................................................................
.............................. CYCLE    4 ..............................
........................................................................
   1    -30.9641438 -0.309641E+02  0.452E-01    9.07       0.0  T
   2    -30.9642228 -0.789880E-04  0.267E-01    9.01       1.0  T
   3    -30.9642330 -0.102355E-04  0.363E-02    8.97       1.0  T
   4    -30.9642380 -0.502295E-05  0.184E-02    8.97       1.1  T
   5    -30.9642392 -0.111728E-05  0.112E-02    8.98       1.9  T
   6    -30.9642394 -0.267485E-06  0.379E-03    8.97       5.5  T
   7    -30.9642395 -0.448033E-07  0.175E-03    8.97      11.9  T
   8    -30.9642395 -0.494890E-08  0.398E-04    8.97      52.5  T
   9    -30.9642395 -0.470269E-09  0.143E-04    8.97     146.0  T
     SCC iter.                  ...        0 min,  0.013 sec
     gradient                   ...        0 min,  0.008 sec
 * total energy  :   -30.6427938 Eh     change       -0.4449050E-02 Eh
   gradient norm :     0.0378838 Eh/α   predicted    -0.7770624E-02 (  74.66%)
   displ. norm   :     0.2672159 α      lambda       -0.5392243E-02
   maximum displ.:     0.1462917 α      in ANC's #10, #7, #15, ...

........................................................................
.............................. CYCLE    5 ..............................
........................................................................
   1    -30.9726692 -0.309727E+02  0.185E-01    9.12       0.0  T
   2    -30.9726859 -0.166243E-04  0.108E-01    9.14       1.0  T
   3    -30.9726872 -0.128538E-05  0.172E-02    9.14       1.2  T
   4    -30.9726883 -0.118848E-05  0.676E-03    9.14       3.1  T
   5    -30.9726884 -0.733329E-07  0.391E-03    9.14       5.3  T
   6    -30.9726884 -0.268109E-07  0.200E-03    9.14      10.4  T
   7    -30.9726885 -0.103761E-07  0.870E-04    9.14      24.0  T
   8    -30.9726885 -0.141915E-08  0.377E-04    9.14      55.3  T
     SCC iter.                  ...        0 min,  0.011 sec
     gradient                   ...        0 min,  0.008 sec
 * total energy  :   -30.6437907 Eh     change       -0.9968606E-03 Eh
   gradient norm :     0.0432607 Eh/α   predicted    -0.2888636E-02 ( 189.77%)
   displ. norm   :     0.1420746 α      lambda       -0.2971368E-02
   maximum displ.:     0.0665590 α      in ANC's #1, #4, #27, ...

........................................................................
.............................. CYCLE    6 ..............................
........................................................................
   1    -30.9690606 -0.309691E+02  0.108E-01    9.14       0.0  T
   2    -30.9690724 -0.118597E-04  0.611E-02    9.13       1.0  T
   3    -30.9690721  0.275563E-06  0.189E-02    9.14       1.1  T
   4    -30.9690741 -0.194649E-05  0.363E-03    9.14       5.7  T
   5    -30.9690741 -0.213941E-07  0.203E-03    9.14      10.3  T
   6    -30.9690741 -0.969727E-08  0.652E-04    9.14      32.0  T
   7    -30.9690741 -0.123123E-08  0.317E-04    9.14      65.8  T
     SCC iter.                  ...        0 min,  0.010 sec
     gradient                   ...        0 min,  0.012 sec
 * total energy  :   -30.6451657 Eh     change       -0.1375001E-02 Eh
   gradient norm :     0.0105330 Eh/α   predicted    -0.1515677E-02 (  10.23%)
   displ. norm   :     0.1326562 α      lambda       -0.4824444E-03
   maximum displ.:     0.0901211 α      in ANC's #1, #7, #13, ...

........................................................................
.............................. CYCLE    7 ..............................
........................................................................
   1    -30.9697203 -0.309697E+02  0.553E-02    9.19       0.0  T
   2    -30.9697221 -0.179107E-05  0.325E-02    9.19       1.0  T
   3    -30.9697223 -0.139707E-06  0.465E-03    9.19       4.5  T
   4    -30.9697223 -0.573390E-07  0.151E-03    9.19      13.8  T
   5    -30.9697223 -0.358005E-08  0.712E-04    9.19      29.3  T
   6    -30.9697223 -0.126553E-08  0.258E-04    9.19      80.8  T
     SCC iter.                  ...        0 min,  0.009 sec
     gradient                   ...        0 min,  0.008 sec
 * total energy  :   -30.6454955 Eh     change       -0.3298539E-03 Eh
   gradient norm :     0.0083497 Eh/α   predicted    -0.2454678E-03 ( -25.58%)
   displ. norm   :     0.2792560 α      lambda       -0.6394067E-03
   maximum displ.:     0.1931813 α      in ANC's #1, #7, #8, ...

........................................................................
.............................. CYCLE    8 ..............................
........................................................................
   1    -30.9704033 -0.309704E+02  0.706E-02    9.32       0.0  T
   2    -30.9704073 -0.406742E-05  0.429E-02    9.32       1.0  T
   3    -30.9704076 -0.283907E-06  0.848E-03    9.31       2.5  T
   4    -30.9704079 -0.289985E-06  0.280E-03    9.31       7.5  T
   5    -30.9704079 -0.173711E-07  0.159E-03    9.32      13.2  T
   6    -30.9704079 -0.535290E-08  0.658E-04    9.32      31.7  T
   7    -30.9704079 -0.122604E-08  0.287E-04    9.32      72.6  T
     SCC iter.                  ...        0 min,  0.011 sec
     gradient                   ...        0 min,  0.011 sec
 * total energy  :   -30.6459705 Eh     change       -0.4749609E-03 Eh
   gradient norm :     0.0060790 Eh/α   predicted    -0.3446362E-03 ( -27.44%)
   displ. norm   :     0.3683296 α      lambda       -0.5790000E-03
   maximum displ.:     0.2670690 α      in ANC's #1, #7, #8, ...

........................................................................
.............................. CYCLE    9 ..............................
........................................................................
   1    -30.9713147 -0.309713E+02  0.856E-02    9.44       0.0  T
   2    -30.9713183 -0.367099E-05  0.521E-02    9.44       1.0  T
   3    -30.9713184 -0.938917E-07  0.754E-03    9.44       2.8  T
   4    -30.9713188 -0.363686E-06  0.240E-03    9.44       8.7  T
   5    -30.9713188 -0.106536E-07  0.145E-03    9.44      14.4  T
   6    -30.9713188 -0.349489E-08  0.593E-04    9.44      35.1  T
   7    -30.9713188 -0.756735E-09  0.324E-04    9.44      64.4  T
     SCC iter.                  ...        0 min,  0.010 sec
     gradient                   ...        0 min,  0.007 sec
 * total energy  :   -30.6463852 Eh     change       -0.4146975E-03 Eh
   gradient norm :     0.0058843 Eh/α   predicted    -0.3287768E-03 ( -20.72%)
   displ. norm   :     0.3370208 α      lambda       -0.3998173E-03
   maximum displ.:     0.2408201 α      in ANC's #1, #7, #8, ...

........................................................................
.............................. CYCLE   10 ..............................
........................................................................
   1    -30.9711987 -0.309712E+02  0.823E-02    9.47       0.0  T
   2    -30.9712006 -0.191651E-05  0.503E-02    9.47       1.0  T
   3    -30.9712009 -0.317132E-06  0.451E-03    9.47       4.6  T
   4    -30.9712010 -0.649363E-07  0.221E-03    9.47       9.4  T
   5    -30.9712010 -0.393645E-08  0.973E-04    9.47      21.4  T
   6    -30.9712010 -0.169165E-08  0.453E-04    9.47      46.0  T
     SCC iter.                  ...        0 min,  0.009 sec
     gradient                   ...        0 min,  0.008 sec
 * total energy  :   -30.6466859 Eh     change       -0.3006984E-03 Eh
   gradient norm :     0.0066200 Eh/α   predicted    -0.2226175E-03 ( -25.97%)
   displ. norm   :     0.3590917 α      lambda       -0.4423175E-03
   maximum displ.:     0.2483373 α      in ANC's #1, #5, #8, ...

........................................................................
.............................. CYCLE   11 ..............................
........................................................................
   1    -30.9714432 -0.309714E+02  0.872E-02    9.54       0.0  T
   2    -30.9714442 -0.103123E-05  0.532E-02    9.54       1.0  T
   3    -30.9714445 -0.271337E-06  0.369E-03    9.54       5.7  T
   4    -30.9714446 -0.683139E-07  0.209E-03    9.54      10.0  T
   5    -30.9714446 -0.576445E-08  0.940E-04    9.54      22.2  T
   6    -30.9714446 -0.197706E-08  0.454E-04    9.54      45.9  T
     SCC iter.                  ...        0 min,  0.009 sec
     gradient                   ...        0 min,  0.009 sec
 * total energy  :   -30.6470196 Eh     change       -0.3336685E-03 Eh
   gradient norm :     0.0054533 Eh/α   predicted    -0.2496801E-03 ( -25.17%)
   displ. norm   :     0.3761226 α      lambda       -0.3873707E-03
   maximum displ.:     0.2411386 α      in ANC's #1, #5, #4, ...

........................................................................
.............................. CYCLE   12 ..............................
........................................................................
   1    -30.9711602 -0.309712E+02  0.957E-02    9.49       0.0  T
   2    -30.9711617 -0.148478E-05  0.583E-02    9.50       1.0  T
   3    -30.9711620 -0.243768E-06  0.526E-03    9.50       4.0  T
   4    -30.9711622 -0.262954E-06  0.241E-03    9.50       8.6  T
   5    -30.9711622 -0.728685E-08  0.964E-04    9.50      21.6  T
   6    -30.9711622 -0.172185E-08  0.451E-04    9.50      46.3  T
     SCC iter.                  ...        0 min,  0.009 sec
     gradient                   ...        0 min,  0.007 sec
 * total energy  :   -30.6473122 Eh     change       -0.2926589E-03 Eh
   gradient norm :     0.0044415 Eh/α   predicted    -0.2210873E-03 ( -24.46%)
   displ. norm   :     0.4236812 α      lambda       -0.3510170E-03
   maximum displ.:     0.2855924 α      in ANC's #1, #4, #5, ...

........................................................................
.............................. CYCLE   13 ..............................
........................................................................
   1    -30.9714141 -0.309714E+02  0.969E-02    9.54       0.0  T
   2    -30.9714150 -0.895472E-06  0.591E-02    9.54       1.0  T
   3    -30.9714153 -0.369444E-06  0.356E-03    9.54       5.9  T
   4    -30.9714154 -0.309570E-07  0.206E-03    9.54      10.1  T
   5    -30.9714154 -0.605043E-08  0.791E-04    9.54      26.4  T
   6    -30.9714154 -0.131705E-08  0.454E-04    9.54      46.0  T
     SCC iter.                  ...        0 min,  0.008 sec
     gradient                   ...        0 min,  0.013 sec
 * total energy  :   -30.6475885 Eh     change       -0.2762499E-03 Eh
   gradient norm :     0.0045177 Eh/α   predicted    -0.2070145E-03 ( -25.06%)
   displ. norm   :     0.3940641 α      lambda       -0.2052244E-03
   maximum displ.:     0.2824945 α      in ANC's #1, #4, #5, ...

........................................................................
.............................. CYCLE   14 ..............................
........................................................................
   1    -30.9704726 -0.309705E+02  0.930E-02    9.48       0.0  T
   2    -30.9704738 -0.119584E-05  0.568E-02    9.48       1.0  T
   3    -30.9704741 -0.316112E-06  0.390E-03    9.48       5.3  T
   4    -30.9704742 -0.996042E-07  0.199E-03    9.48      10.5  T
   5    -30.9704742 -0.532292E-08  0.853E-04    9.48      24.4  T
   6    -30.9704742 -0.124934E-08  0.385E-04    9.48      54.2  T
     SCC iter.                  ...        0 min,  0.008 sec
     gradient                   ...        0 min,  0.007 sec
 * total energy  :   -30.6477114 Eh     change       -0.1229845E-03 Eh
   gradient norm :     0.0063447 Eh/α   predicted    -0.1185475E-03 (  -3.61%)
   displ. norm   :     0.1966265 α      lambda       -0.1738286E-03
   maximum displ.:     0.1525064 α      in ANC's #1, #4, #5, ...

........................................................................
.............................. CYCLE   15 ..............................
........................................................................
   1    -30.9734665 -0.309735E+02  0.373E-02    9.56       0.0  T
   2    -30.9734675 -0.959658E-06  0.224E-02    9.56       1.0  T
   3    -30.9734675 -0.623978E-07  0.411E-03    9.55       5.1  T
   4    -30.9734676 -0.792616E-07  0.130E-03    9.55      16.1  T
   5    -30.9734676 -0.356862E-08  0.727E-04    9.55      28.7  T
   6    -30.9734676 -0.928317E-09  0.304E-04    9.55      68.6  T
     SCC iter.                  ...        0 min,  0.008 sec
     gradient                   ...        0 min,  0.011 sec
 * total energy  :   -30.6477985 Eh     change       -0.8705874E-04 Eh
   gradient norm :     0.0037501 Eh/α   predicted    -0.9027808E-04 (   3.70%)
   displ. norm   :     0.1717127 α      lambda       -0.9073510E-04
   maximum displ.:     0.1179702 α      in ANC's #1, #4, #5, ...

........................................................................
.............................. CYCLE   16 ..............................
........................................................................
   1    -30.9727685 -0.309728E+02  0.448E-02    9.56       0.0  T
   2    -30.9727687 -0.227121E-06  0.272E-02    9.56       1.0  T
   3    -30.9727688 -0.680875E-07  0.202E-03    9.56      10.3  T
   4    -30.9727688 -0.283361E-07  0.108E-03    9.56      19.3  T
   5    -30.9727688 -0.120943E-08  0.311E-04    9.56      67.0  T
   6    -30.9727688 -0.269836E-09  0.186E-04    9.56     112.3  T
     SCC iter.                  ...        0 min,  0.008 sec
     gradient                   ...        0 min,  0.009 sec
 * total energy  :   -30.6478589 Eh     change       -0.6039862E-04 Eh
   gradient norm :     0.0021225 Eh/α   predicted    -0.4670972E-04 ( -22.66%)
   displ. norm   :     0.1487862 α      lambda       -0.7316990E-04
   maximum displ.:     0.0743621 α      in ANC's #1, #3, #4, ...

........................................................................
.............................. CYCLE   17 ..............................
........................................................................
   1    -30.9724719 -0.309725E+02  0.340E-02    9.55       0.0  T
   2    -30.9724721 -0.143835E-06  0.205E-02    9.55       1.0  T
   3    -30.9724721 -0.392843E-07  0.132E-03    9.55      15.8  T
   4    -30.9724721 -0.947730E-08  0.725E-04    9.55      28.8  T
   5    -30.9724721 -0.470923E-09  0.266E-04    9.55      78.4  T
     SCC iter.                  ...        0 min,  0.007 sec
     gradient                   ...        0 min,  0.007 sec
 * total energy  :   -30.6479135 Eh     change       -0.5460261E-04 Eh
   gradient norm :     0.0024843 Eh/α   predicted    -0.3739634E-04 ( -31.51%)
   displ. norm   :     0.1696009 α      lambda       -0.7839935E-04
   maximum displ.:     0.1092851 α      in ANC's #3, #6, #4, ...

........................................................................
.............................. CYCLE   18 ..............................
........................................................................
   1    -30.9723905 -0.309724E+02  0.301E-02    9.57       0.0  T
   2    -30.9723906 -0.957219E-07  0.181E-02    9.57       1.2  T
   3    -30.9723906 -0.291731E-07  0.116E-03    9.57      17.9  T
   4    -30.9723906 -0.488230E-08  0.643E-04    9.57      32.4  T
   5    -30.9723906 -0.715985E-09  0.276E-04    9.57      75.5  T
     SCC iter.                  ...        0 min,  0.007 sec
     gradient                   ...        0 min,  0.007 sec
 * total energy  :   -30.6479703 Eh     change       -0.5676998E-04 Eh
   gradient norm :     0.0026437 Eh/α   predicted    -0.4032764E-04 ( -28.96%)
   displ. norm   :     0.1551845 α      lambda       -0.5376886E-04
   maximum displ.:     0.1086067 α      in ANC's #3, #4, #6, ...

........................................................................
.............................. CYCLE   19 ..............................
........................................................................
   1    -30.9722377 -0.309722E+02  0.250E-02    9.57       0.0  T
   2    -30.9722377 -0.454794E-07  0.150E-02    9.57       1.4  T
   3    -30.9722377 -0.196640E-07  0.874E-04    9.57      23.9  T
   4    -30.9722377 -0.170661E-08  0.552E-04    9.57      37.8  T
     SCC iter.                  ...        0 min,  0.006 sec
     gradient                   ...        0 min,  0.007 sec
 * total energy  :   -30.6480107 Eh     change       -0.4045401E-04 Eh
   gradient norm :     0.0020706 Eh/α   predicted    -0.2753690E-04 ( -31.93%)
   displ. norm   :     0.1291648 α      lambda       -0.4414781E-04
   maximum displ.:     0.1009789 α      in ANC's #3, #8, #5, ...

........................................................................
.............................. CYCLE   20 ..............................
........................................................................
   1    -30.9723858 -0.309724E+02  0.192E-02    9.57       0.0  T
   2    -30.9723859 -0.928595E-07  0.114E-02    9.57       1.8  T
   3    -30.9723859 -0.695424E-08  0.106E-03    9.57      19.6  T
   4    -30.9723859 -0.525199E-08  0.460E-04    9.57      45.3  T
   5    -30.9723859 -0.208296E-09  0.257E-04    9.57      81.1  T
     SCC iter.                  ...        0 min,  0.007 sec
     gradient                   ...        0 min,  0.007 sec
 * total energy  :   -30.6480437 Eh     change       -0.3298310E-04 Eh
   gradient norm :     0.0013629 Eh/α   predicted    -0.2244436E-04 ( -31.95%)
   displ. norm   :     0.2183331 α      lambda       -0.3837331E-04
   maximum displ.:     0.1547928 α      in ANC's #3, #5, #4, ...
 * RMSD in coord.:     0.7398177 α      energy gain  -0.1174705E+00 Eh

generating ANC from model Hessian ...
Using Lindh-Hessian (1995)
 Shifting diagonal of input Hessian by    9.9836225293659809E-003
 Lowest  eigenvalues of input Hessian
    0.000000    0.000000    0.000000    0.000000    0.000000    0.000000
    0.010000    0.010064    0.010211    0.012467    0.013442    0.015748
    0.019452    0.020370    0.027071    0.030254    0.034329    0.036664
 Highest eigenvalues
    1.229866    1.230926    1.244082    1.274719    1.325111    1.563984


........................................................................
.............................. CYCLE   21 ..............................
........................................................................
   1    -30.9720666 -0.309721E+02  0.375E-02    9.55       0.0  T
   2    -30.9720668 -0.166572E-06  0.225E-02    9.55       1.0  T
   3    -30.9720668 -0.508370E-07  0.149E-03    9.55      14.0  T
   4    -30.9720668 -0.357250E-08  0.884E-04    9.55      23.6  T
   5    -30.9720668 -0.678739E-09  0.304E-04    9.55      68.6  T
     SCC iter.                  ...        0 min,  0.007 sec
     gradient                   ...        0 min,  0.006 sec
 * total energy  :   -30.6480758 Eh     change       -0.3205708E-04 Eh
   gradient norm :     0.0029663 Eh/α   predicted     0.0000000E+00 (-100.00%)
   displ. norm   :     0.0332092 α      lambda       -0.3333762E-04
   maximum displ.:     0.0189963 α      in ANC's #3, #1, #5, ...

........................................................................
.............................. CYCLE   22 ..............................
........................................................................
   1    -30.9727233 -0.309727E+02  0.125E-02    9.56       0.0  T
   2    -30.9727233 -0.498119E-07  0.734E-03    9.56       2.8  T
   3    -30.9727233 -0.850881E-08  0.736E-04    9.56      28.3  T
   4    -30.9727233 -0.103292E-08  0.346E-04    9.56      60.2  T
     SCC iter.                  ...        0 min,  0.006 sec
     gradient                   ...        0 min,  0.007 sec
 * total energy  :   -30.6481006 Eh     change       -0.2483463E-04 Eh
   gradient norm :     0.0010758 Eh/α   predicted    -0.1669034E-04 ( -32.79%)
   displ. norm   :     0.1011974 α      lambda       -0.3017815E-04
   maximum displ.:     0.0601250 α      in ANC's #1, #3, #5, ...

........................................................................
.............................. CYCLE   23 ..............................
........................................................................
   1    -30.9735268 -0.309735E+02  0.214E-02    9.58       0.0  T
   2    -30.9735269 -0.112235E-06  0.128E-02    9.58       1.6  T
   3    -30.9735269 -0.178066E-07  0.120E-03    9.57      17.3  T
   4    -30.9735269 -0.728900E-08  0.566E-04    9.57      36.8  T
   5    -30.9735269 -0.280632E-09  0.272E-04    9.57      76.6  T
     SCC iter.                  ...        0 min,  0.007 sec
     gradient                   ...        0 min,  0.007 sec
 * total energy  :   -30.6481291 Eh     change       -0.2846365E-04 Eh
   gradient norm :     0.0021373 Eh/α   predicted    -0.1515943E-04 ( -46.74%)
   displ. norm   :     0.0659154 α      lambda       -0.2116112E-04
   maximum displ.:     0.0414520 α      in ANC's #1, #3, #5, ...

........................................................................
.............................. CYCLE   24 ..............................
........................................................................
   1    -30.9734611 -0.309735E+02  0.115E-02    9.58       0.0  T
   2    -30.9734611 -0.131380E-07  0.695E-03    9.58       3.0  T
   3    -30.9734611 -0.524073E-08  0.512E-04    9.58      40.7  T
   4    -30.9734611 -0.919844E-09  0.305E-04    9.58      68.4  T
     SCC iter.                  ...        0 min,  0.006 sec
     gradient                   ...        0 min,  0.008 sec
 * total energy  :   -30.6481487 Eh     change       -0.1962789E-04 Eh
   gradient norm :     0.0020951 Eh/α   predicted    -0.1062674E-04 ( -45.86%)
   displ. norm   :     0.1516357 α      lambda       -0.4829760E-04
   maximum displ.:     0.0962033 α      in ANC's #1, #3, #5, ...

........................................................................
.............................. CYCLE   25 ..............................
........................................................................
   1    -30.9730544 -0.309731E+02  0.264E-02    9.60       0.0  T
   2    -30.9730545 -0.765221E-07  0.159E-02    9.60       1.3  T
   3    -30.9730545 -0.277217E-07  0.113E-03    9.60      18.5  T
   4    -30.9730545 -0.281370E-08  0.673E-04    9.60      31.0  T
   5    -30.9730545 -0.653085E-09  0.285E-04    9.60      73.1  T
     SCC iter.                  ...        0 min,  0.008 sec
     gradient                   ...        0 min,  0.007 sec
 * total energy  :   -30.6481872 Eh     change       -0.3852998E-04 Eh
   gradient norm :     0.0012934 Eh/α   predicted    -0.2470463E-04 ( -35.88%)
   displ. norm   :     0.2266295 α      lambda       -0.3126739E-04
   maximum displ.:     0.1542072 α      in ANC's #1, #3, #5, ...

........................................................................
.............................. CYCLE   26 ..............................
........................................................................
   1    -30.9725352 -0.309725E+02  0.366E-02    9.61       0.0  T
   2    -30.9725354 -0.151934E-06  0.220E-02    9.61       1.0  T
   3    -30.9725354 -0.489461E-07  0.154E-03    9.61      13.6  T
   4    -30.9725354 -0.393405E-08  0.949E-04    9.61      22.0  T
   5    -30.9725354 -0.116702E-08  0.375E-04    9.61      55.7  T
     SCC iter.                  ...        0 min,  0.007 sec
     gradient                   ...        0 min,  0.008 sec
 * total energy  :   -30.6482155 Eh     change       -0.2822423E-04 Eh
   gradient norm :     0.0012710 Eh/α   predicted    -0.1599167E-04 ( -43.34%)
   displ. norm   :     0.0547358 α      lambda       -0.9568812E-05
   maximum displ.:     0.0478471 α      in ANC's #1, #3, #4, ...

........................................................................
.............................. CYCLE   27 ..............................
........................................................................
   1    -30.9728729 -0.309729E+02  0.699E-03    9.60       0.0  T
   2    -30.9728729 -0.539652E-08  0.418E-03    9.60       5.0  T
   3    -30.9728729 -0.126154E-08  0.378E-04    9.60      55.2  T
   4    -30.9728729 -0.552234E-09  0.261E-04    9.60      79.8  T
     SCC iter.                  ...        0 min,  0.006 sec
     gradient                   ...        0 min,  0.007 sec
 * total energy  :   -30.6482287 Eh     change       -0.1323230E-04 Eh
   gradient norm :     0.0008063 Eh/α   predicted    -0.4791690E-05 ( -63.79%)
   displ. norm   :     0.0743999 α      lambda       -0.1878661E-04
   maximum displ.:     0.0494058 α      in ANC's #1, #7, #8, ...

........................................................................
.............................. CYCLE   28 ..............................
........................................................................
   1    -30.9733175 -0.309733E+02  0.154E-02    9.59       0.0  T
   2    -30.9733175 -0.218358E-07  0.919E-03    9.59       2.3  T
   3    -30.9733175 -0.285915E-08  0.687E-04    9.59      30.3  T
   4    -30.9733175 -0.491492E-08  0.350E-04    9.59      59.5  T
     SCC iter.                  ...        0 min,  0.007 sec
     gradient                   ...        0 min,  0.007 sec
 * total energy  :   -30.6482507 Eh     change       -0.2200008E-04 Eh
   gradient norm :     0.0007415 Eh/α   predicted    -0.9417770E-05 ( -57.19%)
   displ. norm   :     0.0885478 α      lambda       -0.1441244E-04
   maximum displ.:     0.0673034 α      in ANC's #1, #6, #8, ...

........................................................................
.............................. CYCLE   29 ..............................
........................................................................
   1    -30.9733155 -0.309733E+02  0.153E-02    9.58       0.0  T
   2    -30.9733155 -0.123376E-07  0.913E-03    9.58       2.3  T
   3    -30.9733155 -0.528585E-08  0.512E-04    9.58      40.8  T
   4    -30.9733155 -0.763929E-09  0.345E-04    9.58      60.4  T
     SCC iter.                  ...        0 min,  0.006 sec
     gradient                   ...        0 min,  0.007 sec
 * total energy  :   -30.6482684 Eh     change       -0.1772302E-04 Eh
   gradient norm :     0.0010115 Eh/α   predicted    -0.7233938E-05 ( -59.18%)
   displ. norm   :     0.0727887 α      lambda       -0.1005107E-04
   maximum displ.:     0.0608017 α      in ANC's #1, #4, #6, ...

........................................................................
.............................. CYCLE   30 ..............................
........................................................................
   1    -30.9732054 -0.309732E+02  0.110E-02    9.58       0.0  T
   2    -30.9732054 -0.113469E-07  0.659E-03    9.58       3.2  T
   3    -30.9732054 -0.562211E-08  0.509E-04    9.58      41.0  T
   4    -30.9732054 -0.600615E-09  0.322E-04    9.58      64.7  T
     SCC iter.                  ...        0 min,  0.006 sec
     gradient                   ...        0 min,  0.007 sec
 * total energy  :   -30.6482821 Eh     change       -0.1371387E-04 Eh
   gradient norm :     0.0007960 Eh/α   predicted    -0.5038704E-05 ( -63.26%)
   displ. norm   :     0.0740256 α      lambda       -0.6438755E-05
   maximum displ.:     0.0622808 α      in ANC's #1, #4, #6, ...

........................................................................
.............................. CYCLE   31 ..............................
........................................................................
   1    -30.9730459 -0.309730E+02  0.111E-02    9.58       0.0  T
   2    -30.9730460 -0.123536E-07  0.668E-03    9.58       3.1  T
   3    -30.9730460 -0.605096E-08  0.529E-04    9.58      39.4  T
   4    -30.9730460 -0.684963E-09  0.331E-04    9.58      62.9  T
     SCC iter.                  ...        0 min,  0.006 sec
     gradient                   ...        0 min,  0.007 sec
 * total energy  :   -30.6482932 Eh     change       -0.1111223E-04 Eh
   gradient norm :     0.0007388 Eh/α   predicted    -0.3232111E-05 ( -70.91%)
   displ. norm   :     0.0752417 α      lambda       -0.2909898E-05
   maximum displ.:     0.0637245 α      in ANC's #1, #4, #6, ...

........................................................................
.............................. CYCLE   32 ..............................
........................................................................
   1    -30.9728367 -0.309728E+02  0.113E-02    9.58       0.0  T
   2    -30.9728367 -0.132153E-07  0.677E-03    9.58       3.1  T
   3    -30.9728367 -0.640417E-08  0.544E-04    9.58      38.4  T
   4    -30.9728367 -0.705192E-09  0.339E-04    9.58      61.6  T
     SCC iter.                  ...        0 min,  0.006 sec
     gradient                   ...        0 min,  0.007 sec
 * total energy  :   -30.6483015 Eh     change       -0.8252203E-05 Eh
   gradient norm :     0.0009482 Eh/α   predicted    -0.1463269E-05 ( -82.27%)
   displ. norm   :     0.0762229 α      lambda        0.8861136E-06
   maximum displ.:     0.0648792 α      in ANC's #1, #4, #6, ...

........................................................................
.............................. CYCLE   33 ..............................
........................................................................
   1    -30.9725774 -0.309726E+02  0.114E-02    9.58       0.0  T
   2    -30.9725774 -0.143465E-07  0.685E-03    9.58       3.0  T
   3    -30.9725774 -0.673132E-08  0.559E-04    9.58      37.3  T
   4    -30.9725774 -0.734257E-09  0.348E-04    9.58      59.9  T
     SCC iter.                  ...        0 min,  0.006 sec
     gradient                   ...        0 min,  0.008 sec
 * total energy  :   -30.6483064 Eh     change       -0.4953893E-05 Eh
   gradient norm :     0.0013783 Eh/α   predicted     0.4412460E-06 (-108.91%)
   displ. norm   :     0.0756158 α      lambda        0.5417231E-05
   maximum displ.:     0.0641696 α      in ANC's #1, #4, #6, ...

........................................................................
.............................. CYCLE   34 ..............................
........................................................................
   1    -30.9722710 -0.309723E+02  0.114E-02    9.58       0.0  T
   2    -30.9722711 -0.154832E-07  0.684E-03    9.58       3.0  T
   3    -30.9722711 -0.687021E-08  0.567E-04    9.58      36.8  T
   4    -30.9722711 -0.756643E-09  0.354E-04    9.58      59.0  T
     SCC iter.                  ...        0 min,  0.005 sec
     gradient                   ...        0 min,  0.005 sec
 * total energy  :   -30.6483073 Eh     change       -0.8719551E-06 Eh
   gradient norm :     0.0019503 Eh/α   predicted     0.2714414E-05 (-411.30%)
   displ. norm   :     0.0252430 α      lambda       -0.9382463E-05
   maximum displ.:     0.0114614 α      in ANC's #5, #7, #3, ...

........................................................................
.............................. CYCLE   35 ..............................
........................................................................
   1    -30.9724757 -0.309725E+02  0.785E-03    9.59       0.0  T
   2    -30.9724757 -0.217418E-07  0.467E-03    9.59       4.5  T
   3    -30.9724757  0.115799E-08  0.678E-04    9.59      30.8  T
   4    -30.9724757 -0.481659E-08  0.202E-04    9.59     103.3  T
     SCC iter.                  ...        0 min,  0.006 sec
     gradient                   ...        0 min,  0.009 sec
 * total energy  :   -30.6483194 Eh     change       -0.1208227E-04 Eh
   gradient norm :     0.0013494 Eh/α   predicted    -0.4694264E-05 ( -61.15%)
   displ. norm   :     0.1104152 α      lambda       -0.2726462E-04
   maximum displ.:     0.0517084 α      in ANC's #5, #7, #1, ...

........................................................................
.............................. CYCLE   36 ..............................
........................................................................
   1    -30.9731768 -0.309732E+02  0.274E-02    9.61       0.0  T
   2    -30.9731769 -0.111527E-06  0.164E-02    9.61       1.3  T
   3    -30.9731769 -0.171979E-07  0.128E-03    9.61      16.3  T
   4    -30.9731769 -0.123426E-07  0.603E-04    9.61      34.6  T
   5    -30.9731769 -0.342414E-09  0.238E-04    9.61      87.8  T
     SCC iter.                  ...        0 min,  0.007 sec
     gradient                   ...        0 min,  0.008 sec
 * total energy  :   -30.6483447 Eh     change       -0.2532256E-04 Eh
   gradient norm :     0.0012327 Eh/α   predicted    -0.1370642E-04 ( -45.87%)
   displ. norm   :     0.0657147 α      lambda       -0.8645317E-05
   maximum displ.:     0.0466515 α      in ANC's #1, #5, #4, ...

........................................................................
.............................. CYCLE   37 ..............................
........................................................................
   1    -30.9732676 -0.309733E+02  0.155E-02    9.61       0.0  T
   2    -30.9732676 -0.167030E-07  0.935E-03    9.61       2.2  T
   3    -30.9732676 -0.652681E-08  0.542E-04    9.61      38.4  T
   4    -30.9732676 -0.100333E-08  0.323E-04    9.61      64.6  T
     SCC iter.                  ...        0 min,  0.006 sec
     gradient                   ...        0 min,  0.007 sec
 * total energy  :   -30.6483554 Eh     change       -0.1072469E-04 Eh
   gradient norm :     0.0011222 Eh/α   predicted    -0.4331862E-05 ( -59.61%)
   displ. norm   :     0.0688852 α      lambda       -0.9401846E-05
   maximum displ.:     0.0521250 α      in ANC's #1, #2, #4, ...

........................................................................
.............................. CYCLE   38 ..............................
........................................................................
   1    -30.9732639 -0.309733E+02  0.147E-02    9.60       0.0  T
   2    -30.9732640 -0.279615E-07  0.884E-03    9.60       2.4  T
   3    -30.9732640 -0.257243E-08  0.771E-04    9.60      27.0  T
   4    -30.9732640 -0.627778E-08  0.349E-04    9.60      59.8  T
     SCC iter.                  ...        0 min,  0.007 sec
     gradient                   ...        0 min,  0.007 sec
 * total energy  :   -30.6483681 Eh     change       -0.1262468E-04 Eh
   gradient norm :     0.0005493 Eh/α   predicted    -0.4715441E-05 ( -62.65%)
   displ. norm   :     0.0853501 α      lambda       -0.1152080E-04
   maximum displ.:     0.0661297 α      in ANC's #1, #2, #4, ...

........................................................................
.............................. CYCLE   39 ..............................
........................................................................
   1    -30.9731687 -0.309732E+02  0.161E-02    9.60       0.0  T
   2    -30.9731687 -0.345335E-07  0.967E-03    9.60       2.2  T
   3    -30.9731687 -0.341158E-08  0.858E-04    9.60      24.3  T
   4    -30.9731687 -0.754556E-08  0.409E-04    9.60      51.0  T
     SCC iter.                  ...        0 min,  0.005 sec
     gradient                   ...        0 min,  0.010 sec
 * total energy  :   -30.6483832 Eh     change       -0.1518450E-04 Eh
   gradient norm :     0.0006668 Eh/α   predicted    -0.5781142E-05 ( -61.93%)
   displ. norm   :     0.0997946 α      lambda       -0.1163569E-04
   maximum displ.:     0.0773316 α      in ANC's #1, #2, #4, ...

........................................................................
.............................. CYCLE   40 ..............................
........................................................................
   1    -30.9731086 -0.309731E+02  0.171E-02    9.60       0.0  T
   2    -30.9731086 -0.251260E-07  0.103E-02    9.60       2.0  T
   3    -30.9731086 -0.582116E-08  0.731E-04    9.60      28.5  T
   4    -30.9731086 -0.439571E-08  0.404E-04    9.60      51.6  T
     SCC iter.                  ...        0 min,  0.005 sec
     gradient                   ...        0 min,  0.006 sec
 * total energy  :   -30.6483986 Eh     change       -0.1536483E-04 Eh
   gradient norm :     0.0009736 Eh/α   predicted    -0.5844084E-05 ( -61.96%)
   displ. norm   :     0.1003163 α      lambda       -0.1021615E-04
   maximum displ.:     0.0783816 α      in ANC's #1, #2, #4, ...

........................................................................
.............................. CYCLE   41 ..............................
........................................................................
   1    -30.9730910 -0.309731E+02  0.169E-02    9.60       0.0  T
   2    -30.9730911 -0.216436E-07  0.102E-02    9.60       2.0  T
   3    -30.9730911 -0.969302E-08  0.610E-04    9.60      34.2  T
   4    -30.9730911 -0.682558E-09  0.374E-04    9.60      55.7  T
     SCC iter.                  ...        0 min,  0.005 sec
     gradient                   ...        0 min,  0.006 sec
 * total energy  :   -30.6484130 Eh     change       -0.1439360E-04 Eh
   gradient norm :     0.0008647 Eh/α   predicted    -0.5132920E-05 ( -64.34%)
   displ. norm   :     0.1129095 α      lambda       -0.1149012E-04
   maximum displ.:     0.0875401 α      in ANC's #1, #2, #4, ...

........................................................................
.............................. CYCLE   42 ..............................
........................................................................
   1    -30.9731124 -0.309731E+02  0.181E-02    9.61       0.0  T
   2    -30.9731125 -0.298810E-07  0.110E-02    9.60       1.9  T
   3    -30.9731125 -0.123604E-07  0.759E-04    9.60      27.5  T
   4    -30.9731125 -0.212009E-08  0.467E-04    9.60      44.7  T
     SCC iter.                  ...        0 min,  0.005 sec
     gradient                   ...        0 min,  0.005 sec
 * total energy  :   -30.6484293 Eh     change       -0.1625470E-04 Eh
   gradient norm :     0.0005673 Eh/α   predicted    -0.5780908E-05 ( -64.44%)
   displ. norm   :     0.1500681 α      lambda       -0.1513188E-04
   maximum displ.:     0.1147582 α      in ANC's #1, #2, #4, ...
 * RMSD in coord.:     0.3359986 α      energy gain  -0.3855488E-03 Eh

generating ANC from model Hessian ...
Using Lindh-Hessian (1995)
 Shifting diagonal of input Hessian by    9.9877519134614050E-003
 Lowest  eigenvalues of input Hessian
    0.000000    0.000000    0.000000    0.000000    0.000000    0.000000
    0.010000    0.010060    0.010284    0.012428    0.013492    0.015826
    0.019506    0.020347    0.027096    0.030158    0.034408    0.036988
 Highest eigenvalues
    1.231533    1.232176    1.244462    1.274090    1.325966    1.564977


........................................................................
.............................. CYCLE   43 ..............................
........................................................................
   1    -30.9731014 -0.309731E+02  0.235E-02    9.61       0.0  T
   2    -30.9731014 -0.493407E-07  0.142E-02    9.61       1.5  T
   3    -30.9731014 -0.217505E-07  0.101E-03    9.61      20.7  T
   4    -30.9731014 -0.374128E-08  0.626E-04    9.61      33.3  T
   5    -30.9731014 -0.701807E-09  0.246E-04    9.61      84.8  T
     SCC iter.                  ...        0 min,  0.006 sec
     gradient                   ...        0 min,  0.006 sec
 * total energy  :   -30.6484509 Eh     change       -0.2161279E-04 Eh
   gradient norm :     0.0004437 Eh/α   predicted     0.0000000E+00 (-100.00%)
   displ. norm   :     0.0285147 α      lambda       -0.4365153E-05
   maximum displ.:     0.0200335 α      in ANC's #1, #3, #2, ...

........................................................................
.............................. CYCLE   44 ..............................
........................................................................
   1    -30.9732660 -0.309733E+02  0.409E-03    9.61       0.0  T
   2    -30.9732660 -0.342992E-08  0.242E-03    9.61       8.6  T
   3    -30.9732660 -0.144389E-09  0.270E-04    9.61      77.3  T
   4    -30.9732660 -0.600352E-09  0.140E-04    9.61     149.3  T
     SCC iter.                  ...        0 min,  0.005 sec
     gradient                   ...        0 min,  0.006 sec
 * total energy  :   -30.6484568 Eh     change       -0.5940316E-05 Eh
   gradient norm :     0.0002547 Eh/α   predicted    -0.2198529E-05 ( -62.99%)
   displ. norm   :     0.0748630 α      lambda       -0.9710710E-05
   maximum displ.:     0.0490874 α      in ANC's #1, #3, #2, ...

........................................................................
.............................. CYCLE   45 ..............................
........................................................................
   1    -30.9734248 -0.309734E+02  0.766E-03    9.61       0.0  T
   2    -30.9734248 -0.115297E-07  0.455E-03    9.61       4.6  T
   3    -30.9734248 -0.240373E-08  0.473E-04    9.61      44.1  T
   4    -30.9734248 -0.496659E-09  0.309E-04    9.61      67.5  T
     SCC iter.                  ...        0 min,  0.006 sec
     gradient                   ...        0 min,  0.007 sec
 * total energy  :   -30.6484694 Eh     change       -0.1259739E-04 Eh
   gradient norm :     0.0004197 Eh/α   predicted    -0.4891284E-05 ( -61.17%)
   displ. norm   :     0.1271163 α      lambda       -0.1310472E-04
   maximum displ.:     0.0837943 α      in ANC's #1, #3, #2, ...

........................................................................
.............................. CYCLE   46 ..............................
........................................................................
   1    -30.9733497 -0.309733E+02  0.125E-02    9.60       0.0  T
   2    -30.9733498 -0.372963E-07  0.743E-03    9.60       2.8  T
   3    -30.9733498 -0.680460E-08  0.834E-04    9.60      25.0  T
   4    -30.9733498 -0.229922E-08  0.532E-04    9.60      39.2  T
     SCC iter.                  ...        0 min,  0.005 sec
     gradient                   ...        0 min,  0.006 sec
 * total energy  :   -30.6484849 Eh     change       -0.1547478E-04 Eh
   gradient norm :     0.0004755 Eh/α   predicted    -0.6617682E-05 ( -57.24%)
   displ. norm   :     0.1021171 α      lambda       -0.8205785E-05
   maximum displ.:     0.0708727 α      in ANC's #1, #2, #3, ...

........................................................................
.............................. CYCLE   47 ..............................
........................................................................
   1    -30.9734305 -0.309734E+02  0.978E-03    9.60       0.0  T
   2    -30.9734306 -0.162030E-07  0.586E-03    9.60       3.6  T
   3    -30.9734306 -0.491522E-08  0.640E-04    9.60      32.6  T
   4    -30.9734306 -0.101056E-08  0.441E-04    9.60      47.3  T
     SCC iter.                  ...        0 min,  0.006 sec
     gradient                   ...        0 min,  0.009 sec
 * total energy  :   -30.6484955 Eh     change       -0.1060944E-04 Eh
   gradient norm :     0.0004741 Eh/α   predicted    -0.4122730E-05 ( -61.14%)
   displ. norm   :     0.0807936 α      lambda       -0.7523709E-05
   maximum displ.:     0.0584803 α      in ANC's #1, #2, #3, ...

........................................................................
.............................. CYCLE   48 ..............................
........................................................................
   1    -30.9734358 -0.309734E+02  0.866E-03    9.60       0.0  T
   2    -30.9734358 -0.812905E-08  0.518E-03    9.60       4.0  T
   3    -30.9734358 -0.332573E-08  0.484E-04    9.60      43.1  T
   4    -30.9734358 -0.683340E-09  0.330E-04    9.60      63.2  T
     SCC iter.                  ...        0 min,  0.006 sec
     gradient                   ...        0 min,  0.007 sec
 * total energy  :   -30.6485061 Eh     change       -0.1058261E-04 Eh
   gradient norm :     0.0003328 Eh/α   predicted    -0.3773329E-05 ( -64.34%)
   displ. norm   :     0.0909927 α      lambda       -0.1039726E-04
   maximum displ.:     0.0667726 α      in ANC's #1, #2, #9, ...

........................................................................
.............................. CYCLE   49 ..............................
........................................................................
   1    -30.9733778 -0.309734E+02  0.103E-02    9.61       0.0  T
   2    -30.9733778 -0.102461E-07  0.618E-03    9.61       3.4  T
   3    -30.9733778 -0.520166E-08  0.493E-04    9.61      42.3  T
   4    -30.9733778 -0.441030E-09  0.309E-04    9.61      67.5  T
     SCC iter.                  ...        0 min,  0.006 sec
     gradient                   ...        0 min,  0.007 sec
 * total energy  :   -30.6485198 Eh     change       -0.1373925E-04 Eh
   gradient norm :     0.0002722 Eh/α   predicted    -0.5222032E-05 ( -61.99%)
   displ. norm   :     0.1190936 α      lambda       -0.1293077E-04
   maximum displ.:     0.0864314 α      in ANC's #1, #2, #9, ...

........................................................................
.............................. CYCLE   50 ..............................
........................................................................
   1    -30.9733292 -0.309733E+02  0.148E-02    9.61       0.0  T
   2    -30.9733292 -0.168789E-07  0.881E-03    9.61       2.4  T
   3    -30.9733292 -0.690048E-08  0.565E-04    9.61      36.9  T
   4    -30.9733292 -0.596945E-09  0.364E-04    9.61      57.3  T
     SCC iter.                  ...        0 min,  0.009 sec
     gradient                   ...        0 min,  0.007 sec
 * total energy  :   -30.6485366 Eh     change       -0.1676733E-04 Eh
   gradient norm :     0.0003523 Eh/α   predicted    -0.6507818E-05 ( -61.19%)
   displ. norm   :     0.1423682 α      lambda       -0.1274042E-04
   maximum displ.:     0.1028231 α      in ANC's #1, #2, #3, ...

........................................................................
.............................. CYCLE   51 ..............................
........................................................................
   1    -30.9732354 -0.309732E+02  0.171E-02    9.62       0.0  T
   2    -30.9732355 -0.191614E-07  0.102E-02    9.62       2.1  T
   3    -30.9732355 -0.869175E-08  0.654E-04    9.62      31.9  T
   4    -30.9732355 -0.862649E-09  0.437E-04    9.62      47.7  T
     SCC iter.                  ...        0 min,  0.006 sec
     gradient                   ...        0 min,  0.007 sec
 * total energy  :   -30.6485524 Eh     change       -0.1584746E-04 Eh
   gradient norm :     0.0004205 Eh/α   predicted    -0.6431959E-05 ( -59.41%)
   displ. norm   :     0.1264543 α      lambda       -0.9012647E-05
   maximum displ.:     0.0919693 α      in ANC's #1, #2, #3, ...

........................................................................
.............................. CYCLE   52 ..............................
........................................................................
   1    -30.9732336 -0.309732E+02  0.151E-02    9.62       0.0  T
   2    -30.9732336 -0.141351E-07  0.902E-03    9.62       2.3  T
   3    -30.9732336 -0.527720E-08  0.570E-04    9.62      36.6  T
   4    -30.9732336 -0.981434E-09  0.391E-04    9.62      53.3  T
     SCC iter.                  ...        0 min,  0.006 sec
     gradient                   ...        0 min,  0.010 sec
 * total energy  :   -30.6485637 Eh     change       -0.1129412E-04 Eh
   gradient norm :     0.0004320 Eh/α   predicted    -0.4542741E-05 ( -59.78%)
   displ. norm   :     0.1272863 α      lambda       -0.3603589E-05
   maximum displ.:     0.0931171 α      in ANC's #1, #2, #3, ...

........................................................................
.............................. CYCLE   53 ..............................
........................................................................
   1    -30.9731727 -0.309732E+02  0.152E-02    9.62       0.0  T
   2    -30.9731727 -0.134077E-07  0.908E-03    9.62       2.3  T
   3    -30.9731728 -0.539240E-08  0.572E-04    9.62      36.5  T
   4    -30.9731728 -0.958348E-09  0.395E-04    9.62      52.8  T
     SCC iter.                  ...        0 min,  0.006 sec
     gradient                   ...        0 min,  0.007 sec
 * total energy  :   -30.6485696 Eh     change       -0.5852485E-05 Eh
   gradient norm :     0.0005396 Eh/α   predicted    -0.1817738E-05 ( -68.94%)
   displ. norm   :     0.0351938 α      lambda       -0.2869985E-05
   maximum displ.:     0.0274624 α      in ANC's #1, #2, #9, ...

........................................................................
.............................. CYCLE   54 ..............................
........................................................................
   1    -30.9733027 -0.309733E+02  0.553E-03    9.62       0.0  T
   2    -30.9733027 -0.322341E-08  0.330E-03    9.62       6.3  T
   3    -30.9733027 -0.114354E-08  0.277E-04    9.62      75.2  T
   4    -30.9733027 -0.199297E-09  0.192E-04    9.62     108.9  T
     SCC iter.                  ...        0 min,  0.006 sec
     gradient                   ...        0 min,  0.007 sec
 * total energy  :   -30.6485732 Eh     change       -0.3574916E-05 Eh
   gradient norm :     0.0003230 Eh/α   predicted    -0.1436510E-05 ( -59.82%)
   displ. norm   :     0.0446725 α      lambda       -0.4281756E-05
   maximum displ.:     0.0324725 α      in ANC's #1, #9, #3, ...

   *** GEOMETRY OPTIMIZATION CONVERGED AFTER 54 ITERATIONS ***

------------------------------------------------------------------------
 total energy gain   :        -0.1179999 Eh      -74.0461 kcal/mol
 total RMSD          :         0.9502481 a0        0.5028 Å
 total power (kW/mol):        -5.7371981 (step) -227.7940 (real)
------------------------------------------------------------------------

 ANCopt (total)                0 d,  0 h,  0 min,  1.360 sec
 optimizer setup                ...        0 min,  0.000 sec (  0.015%)
 model hessian                  ...        0 min,  0.070 sec (  5.174%)
 ANC generation                 ...        0 min,  0.003 sec (  0.215%)
 coordinate transformation      ...        0 min,  0.001 sec (  0.038%)
 single point calculation       ...        0 min,  1.232 sec ( 90.602%)
 optimization log               ...        0 min,  0.007 sec (  0.503%)
 hessian update                 ...        0 min,  0.017 sec (  1.275%)
 rational function              ...        0 min,  0.018 sec (  1.332%)

================
 final structure:
================
23
 xtb: 6.3.2 (30e43eb)
C         2.78104934120159   -1.23140889452965   -0.30292182131693
C         2.99856591924488   -0.05376679284665    0.63888794077285
C         1.64510931787873    1.43345600456689   -0.86214364099183
H         0.05306932770931    0.33219637599272   -1.76341187107732
C         2.98936307187728    1.24317258377915   -0.16047451441938
H         1.67593730649152    2.30709536403466   -1.51791584766350
H         0.88566641839496    1.62495320140010   -0.09947537343909
C         1.42676192862784   -1.11619691798982   -1.00175856445469
H         2.19824740138995   -0.02890899006069    1.38290672532361
H         3.94979721856741   -0.16387777695928    1.16349836711129
C         1.14577224629393    0.23289464842111   -1.68861899115465
H         0.64226590413548   -1.25433136387870   -0.25304973527475
H         1.31024811578107   -1.90822068417734   -1.74564475813836
H         3.80601503614599    1.22339177990209   -0.88367977718550
H         3.15315953157858    2.09439265683221    0.50455975115490
H         3.59358329331141   -1.26098133627783   -1.03024104934477
H         2.79974625633105   -2.16852155157270    0.25832700461893
Br       -3.01330261021696    0.51579507417481    1.40494656310258
O         1.50391829123094    0.28125102207984   -3.06594349902088
C         2.86308768628651    0.12924258104817   -3.41968506653946
H         2.88253478986255    0.21955311858587   -4.50532197899518
H         3.48768234464717    0.91320608752267   -2.98424138424906
H         3.24831186322004   -0.85378619004910   -3.13627847880859

 Bond Distances (Angstroems)
 ---------------------------
C1-C2=1.5235         C1-C8=1.5283         C1-H16=1.0909        C1-H17=1.0925        C2-C1=1.5235         C2-C5=1.5235         
C2-H9=1.0930         C2-H10=1.0919        C3-C5=1.5283         C3-H6=1.0928         C3-H7=1.0932         C3-C11=1.5407        
H4-C11=1.0998        C5-C2=1.5235         C5-C3=1.5283         C5-H14=1.0910        C5-H15=1.0926        H6-C3=1.0928         
H7-C3=1.0932         C8-C1=1.5283         C8-C11=1.5397        C8-H12=1.0932        C8-H13=1.0928        H9-C2=1.0930         
H10-C2=1.0919        C11-C3=1.5407        C11-H4=1.0998        C11-C8=1.5397        C11-O19=1.4239       H12-C8=1.0932        
H13-C8=1.0928        H14-C5=1.0910        H15-C5=1.0926        H16-C1=1.0909        H17-C1=1.0925        O19-C11=1.4239       
O19-C20=1.4127       C20-O19=1.4127       C20-H21=1.0896       C20-H22=1.0929       C20-H23=1.0932       H21-C20=1.0896       
H22-C20=1.0929       H23-C20=1.0932       
 C  H  Rav=1.0928 sigma=0.0022  Rmin=1.0896  Rmax=1.0998    14
 C  C  Rav=1.5307 sigma=0.0070  Rmin=1.5235  Rmax=1.5407     6
 O  C  Rav=1.4183 sigma=0.0056  Rmin=1.4127  Rmax=1.4239     2

 selected bond angles (degree)
 --------------------
C8-C1-C2=110.54                H16-C1-C2=109.07               H16-C1-C8=110.93               H17-C1-C2=110.06               
H17-C1-C8=108.35               H17-C1-H16=107.85              C5-C2-C1=109.44                H9-C2-C1=109.50                
H9-C2-C5=109.47                H10-C2-C1=110.09               H10-C2-C5=110.07               H10-C2-H9=108.25               
H6-C3-C5=110.50                H7-C3-C5=108.21                H7-C3-H6=107.35                C11-C3-C5=115.74               
C11-C3-H6=108.07               C11-C3-H7=106.59               C3-C5-C2=110.62                H14-C5-C2=109.14               
H14-C5-C3=110.87               H15-C5-C2=110.06               H15-C5-C3=108.32               H15-C5-H14=107.78              
C11-C8-C1=115.58               H12-C8-C1=108.25               H12-C8-C11=106.58              H13-C8-C1=110.55               
H13-C8-C11=108.17              H13-C8-H12=107.34              

 selected dihedral angles (degree)
 ---------------------------------
C5-C2-C1-C8=298.86            C5-C2-C1-H16= 61.08           C5-C2-C1-H17=179.21           H9-C2-C1-C8= 58.86            
H9-C2-C1-H16=181.08           H9-C2-C1-H17=299.21           H10-C2-C1-C8=177.76           H10-C2-C1-H16=299.98          
H10-C2-C1-H17= 58.11          C3-C5-C2-C1= 60.81            C3-C5-C2-H9=300.80            C3-C5-C2-H10=181.93           
H14-C5-C2-C1=298.57           H14-C5-C2-H9=178.55           H14-C5-C2-H10= 59.68          H15-C5-C2-C1=180.48           
H15-C5-C2-H9= 60.46           H15-C5-C2-H10=301.59          C2-C5-C3-H6=185.98            C2-C5-C3-H7= 68.71            
C2-C5-C3-C11=309.21           H14-C5-C3-H6=307.20           H14-C5-C3-H7=189.93           H14-C5-C3-C11= 70.43          
H15-C5-C3-H6= 65.28           H15-C5-C3-H7=308.00           H15-C5-C3-C11=188.50          C11-C8-C1-C2= 51.40           
C11-C8-C1-H16=290.28          C11-C8-C1-H17=172.08          H12-C8-C1-C2=292.00           H12-C8-C1-H16=170.88          
H12-C8-C1-H17= 52.68          H13-C8-C1-C2=174.68           H13-C8-C1-H16= 53.56          H13-C8-C1-H17=295.36          

 CMA Distance (Angstroems)
 ---------------------------
R(CMA):  5.8528
           -------------------------------------------------
          |                Final Singlepoint                |
           -------------------------------------------------

          ...................................................
          :                      SETUP                      :
          :.................................................:
          :  # basis functions                  56          :
          :  # atomic orbitals                  55          :
          :  # shells                           33          :
          :  # electrons                        56          :
          :  max. iterations                   250          :
          :  Hamiltonian                  GFN2-xTB          :
          :  restarted?                      false          :
          :  GBSA solvation                   true          :
          :  PC potential                    false          :
          :  electronic temp.          300.0000000     K    :
          :  accuracy                    1.0000000          :
          :  -> integral cutoff          0.2500000E+02      :
          :  -> integral neglect         0.1000000E-07      :
          :  -> SCF convergence          0.1000000E-05 Eh   :
          :  -> wf. convergence          0.1000000E-03 e    :
          :  Broyden damping             0.4000000          :
          ...................................................

 iter      E             dE          RMSdq      gap      omega  full diag
   1    -30.9733027 -0.309733E+02  0.762E-05    9.62       0.0  T
   2    -30.9733027 -0.105267E-10  0.587E-05    9.62     355.3  T
   3    -30.9733027 -0.465761E-11  0.351E-05    9.62     594.4  T

   *** convergence criteria satisfied after 3 iterations ***

         #    Occupation            Energy/Eh            Energy/eV
      -------------------------------------------------------------
         1        2.0000           -0.7405629             -20.1517
       ...           ...                  ...                  ...
        22        2.0000           -0.4244132             -11.5489
        23        2.0000           -0.4167919             -11.3415
        24        2.0000           -0.4103986             -11.1675
        25        2.0000           -0.3860171             -10.5041
        26        2.0000           -0.3337823              -9.0827
        27        2.0000           -0.3337252              -9.0811
        28        2.0000           -0.3336481              -9.0790 (HOMO)
        29                          0.0197983               0.5387 (LUMO)
        30                          0.0721158               1.9624
        31                          0.0814450               2.2162
        32                          0.0844496               2.2980
        33                          0.0989603               2.6928
       ...                                ...                  ...
        55                          0.3143822               8.5548
      -------------------------------------------------------------
                  HL-Gap            0.3534464 Eh            9.6178 eV
             Fermi-level           -0.1569249 Eh           -4.2701 eV

 SCC (total)                   0 d,  0 h,  0 min,  0.021 sec
 SCC setup                      ...        0 min,  0.002 sec (  8.046%)
 Dispersion                     ...        0 min,  0.001 sec (  5.084%)
 classical contributions        ...        0 min,  0.001 sec (  5.000%)
 integral evaluation            ...        0 min,  0.005 sec ( 23.666%)
 iterations                     ...        0 min,  0.005 sec ( 22.612%)
 molecular gradient             ...        0 min,  0.007 sec ( 34.639%)
 printout                       ...        0 min,  0.000 sec (  0.878%)

         :::::::::::::::::::::::::::::::::::::::::::::::::::::
         ::                     SUMMARY                     ::
         :::::::::::::::::::::::::::::::::::::::::::::::::::::
         :: total energy             -30.648573156017 Eh    ::
         :: total w/o Gsasa/hb       -30.630839822425 Eh    ::
         :: gradient norm              0.000323042947 Eh/a0 ::
         :: HOMO-LUMO gap              9.617766461598 eV    ::
         ::.................................................::
         :: SCC energy               -30.973302727020 Eh    ::
         :: -> isotropic ES            0.202928392713 Eh    ::
         :: -> anisotropic ES          0.003451472149 Eh    ::
         :: -> anisotropic XC          0.009760031568 Eh    ::
         :: -> dispersion             -0.016794079411 Eh    ::
         :: -> Gsolv                  -0.115155194520 Eh    ::
         ::    -> Gborn               -0.097421860927 Eh    ::
         ::    -> Gsasa               -0.013996089687 Eh    ::
         ::    -> Ghb                 -0.007094173428 Eh    ::
         ::    -> Gshift               0.003356929523 Eh    ::
         :: repulsion energy           0.324594470300 Eh    ::
         :: add. restraining           0.000000000000 Eh    ::
         :: total charge              -1.000000000000 e     ::
         :::::::::::::::::::::::::::::::::::::::::::::::::::::

           ------------------------------------------------- 
          |                Numerical Hessian                |
           ------------------------------------------------- 
step length          :   0.00500
SCC accuracy         :   0.30000
Hessian scale factor :   1.00000
frozen atoms in %    :   0.00000    0
RMS gradient         :   0.00032
estimated CPU  time      0.27 min
estimated wall time      0.02 min

writing file <hessian>.

 projected vibrational frequencies (cm-1)
eigval :       -0.00    -0.00    -0.00    -0.00     0.00     0.00
eigval :       17.93    28.12    36.04    43.35   145.25   181.73
eigval :      242.45   257.40   332.02   382.91   391.82   443.35
eigval :      491.35   706.85   768.67   799.39   883.27   907.62
eigval :      925.41   943.30   956.00   994.58  1058.78  1095.40
eigval :     1098.35  1113.39  1121.19  1138.48  1148.55  1163.53
eigval :     1175.45  1244.53  1250.79  1267.56  1308.56  1332.47
eigval :     1345.38  1354.58  1356.67  1361.26  1373.97  1388.54
eigval :     1465.38  1468.66  1476.20  1479.27  1489.23  1490.79
eigval :     1502.41  2885.98  2935.34  2948.58  2957.30  2958.74
eigval :     2960.64  2961.93  2964.75  2976.19  2976.98  2981.19
eigval :     2986.49  2991.00  3005.85
           -------------------------------------------------
          |                Property Printout                |
           -------------------------------------------------

    * Orbital Energies and Occupations

         #    Occupation            Energy/Eh            Energy/eV
      -------------------------------------------------------------
         1        2.0000           -0.7405629             -20.1517
       ...           ...                  ...                  ...
        16        2.0000           -0.4773668             -12.9898
        17        2.0000           -0.4757911             -12.9469
        18        2.0000           -0.4632766             -12.6064
        19        2.0000           -0.4482669             -12.1980
        20        2.0000           -0.4472245             -12.1696
        21        2.0000           -0.4410272             -12.0010
        22        2.0000           -0.4244130             -11.5489
        23        2.0000           -0.4167917             -11.3415
        24        2.0000           -0.4103984             -11.1675
        25        2.0000           -0.3860169             -10.5041
        26        2.0000           -0.3337823              -9.0827
        27        2.0000           -0.3337252              -9.0811
        28        2.0000           -0.3336481              -9.0790 (HOMO)
        29                          0.0197984               0.5387 (LUMO)
        30                          0.0721160               1.9624
        31                          0.0814451               2.2162
        32                          0.0844498               2.2980
        33                          0.0989605               2.6929
        34                          0.1057814               2.8785
        35                          0.1064219               2.8959
        36                          0.1283816               3.4934
        37                          0.1392044               3.7879
        38                          0.1531529               4.1675
        39                          0.1771068               4.8193
       ...                                ...                  ...
        55                          0.3143823               8.5548
      -------------------------------------------------------------
                  HL-Gap            0.3534466 Eh            9.6178 eV
             Fermi-level           -0.1569249 Eh           -4.2701 eV

     #   Z          covCN         q      C6AA      α(0)
     1   6 C        3.804    -0.057    21.588     6.615
     2   6 C        3.806    -0.058    21.622     6.620
     3   6 C        3.802    -0.064    21.721     6.635
     4   1 H        0.923     0.022     2.706     2.572
     5   6 C        3.804    -0.056    21.571     6.612
     6   1 H        0.924     0.036     2.498     2.472
     7   1 H        0.924     0.026     2.649     2.545
     8   6 C        3.802    -0.063    21.715     6.635
     9   1 H        0.924     0.027     2.624     2.533
    10   1 H        0.924     0.040     2.455     2.450
    11   6 C        3.730     0.114    18.803     6.190
    12   1 H        0.924     0.026     2.640     2.541
    13   1 H        0.924     0.036     2.499     2.472
    14   1 H        0.924     0.041     2.437     2.441
    15   1 H        0.924     0.033     2.544     2.494
    16   1 H        0.924     0.042     2.418     2.432
    17   1 H        0.924     0.034     2.535     2.490
    18  35 Br       0.000    -1.000   195.297    22.457
    19   8 O        1.698    -0.358    20.036     6.043
    20   6 C        3.632     0.039    20.314     6.488
    21   1 H        0.925     0.061     2.184     2.311
    22   1 H        0.924     0.039     2.457     2.451
    23   1 H        0.924     0.039     2.464     2.455

 Mol. C6AA /au·bohr⁶  :       5265.835593
 Mol. C8AA /au·bohr⁸  :     144516.867433
 Mol. α(0) /au        :        108.954157


Wiberg/Mayer (AO) data.
largest (>0.10) Wiberg bond orders for each atom

 ---------------------------------------------------------------------------
     #   Z sym  total        # sym  WBO       # sym  WBO       # sym  WBO
 ---------------------------------------------------------------------------
     1   6 C    3.998 --     2 C    1.009     8 C    1.008    17 H    0.977
                            16 H    0.973
     2   6 C    3.998 --     1 C    1.009     5 C    1.009     9 H    0.978
                            10 H    0.977
     3   6 C    3.996 --     5 C    1.008    11 C    0.983     7 H    0.978
                             6 H    0.976
     4   1 H    1.000 --    11 C    0.963
     5   6 C    3.998 --     2 C    1.009     3 C    1.008    15 H    0.977
                            14 H    0.972
     6   1 H    0.999 --     3 C    0.976
     7   1 H    0.999 --     3 C    0.978
     8   6 C    3.996 --     1 C    1.008    11 C    0.984    12 H    0.978
                            13 H    0.975
     9   1 H    0.999 --     2 C    0.978
    10   1 H    0.998 --     2 C    0.977
    11   6 C    3.949 --     8 C    0.984     3 C    0.983    19 O    0.967
                             4 H    0.963
    12   1 H    0.999 --     8 C    0.978
    13   1 H    0.999 --     8 C    0.975
    14   1 H    0.998 --     5 C    0.972
    15   1 H    0.999 --     5 C    0.977
    16   1 H    0.998 --     1 C    0.973
    17   1 H    0.999 --     1 C    0.977
    18  35 Br   0.000 --    19   8 O    2.055 --    20 C    0.985    11 C    0.967
    20   6 C    3.947 --    19 O    0.985    21 H    0.979    23 H    0.974
                            22 H    0.974
    21   1 H    0.996 --    20 C    0.979
    22   1 H    0.998 --    20 C    0.974
    23   1 H    0.998 --    20 C    0.974
 ---------------------------------------------------------------------------

Topologies differ in total number of bonds
Writing topology from bond orders to xtbtopo.mol

molecular dipole:
                 x           y           z       tot (Debye)
 q only:        6.302      -1.076      -2.225
   full:        6.178      -1.073      -2.112      16.817
molecular quadrupole (traceless):
                xx          xy          yy          xz          yz          zz
 q only:      -21.811       8.048      17.690      19.765      -2.887       4.121
  q+dip:      -21.871       8.137      18.965      19.646      -2.633       2.906
   full:      -21.657       8.055      18.708      19.704      -2.648       2.949

           -------------------------------------------------
          |                Geometry Summary                 |
           -------------------------------------------------

      molecular mass/u    :      194.0892545
   center of mass at/Å    :        0.0392031       0.2805609      -0.1708118
  moments of inertia/u·Å² :        0.3258934E+03   0.1791689E+04   0.1909878E+04
rotational constants/cm⁻¹ :        0.5172744E-01   0.9408795E-02   0.8826550E-02

 * 21 selected distances

     #   Z          #   Z                                           value/Å
     1   6 C        2   6 C                                       1.5235354
     2   6 C        5   6 C                                       1.5235212
     3   6 C        5   6 C                                       1.5282557
     3   6 C        6   1 H                                       1.0928098
     3   6 C        7   1 H                                       1.0932006
     1   6 C        8   6 C                                       1.5283131
     2   6 C        9   1 H                                       1.0930195
     2   6 C       10   1 H                                       1.0918706
     4   1 H       11   6 C                                       1.0997520
     8   6 C       11   6 C                                       1.5397339 (max)
     8   6 C       12   1 H                                       1.0931972
     8   6 C       13   1 H                                       1.0928146
     5   6 C       14   1 H                                       1.0910259
     5   6 C       15   1 H                                       1.0925546
     1   6 C       16   1 H                                       1.0909075
     1   6 C       17   1 H                                       1.0924880
    11   6 C       19   8 O                                       1.4239486
    19   8 O       20   6 C                                       1.4126504
    20   6 C       21   1 H                                       1.0895603 (min)
    20   6 C       22   1 H                                       1.0928534
    20   6 C       23   1 H                                       1.0931892

 * 3 distinct bonds (by element types)

   Z      Z             #   av. dist./Å        max./Å        min./Å
   1 H    6 C          14     1.0928031     1.0997520     1.0895603
   6 C    6 C           5     1.5286719     1.5397339     1.5235212
   6 C    8 O           2     1.4182995     1.4239486     1.4126504

           -------------------------------------------------
          |               Frequency Printout                |
           -------------------------------------------------
 projected vibrational frequencies (cm-1)
eigval :       -0.00    -0.00    -0.00    -0.00     0.00     0.00
eigval :       17.93    28.12    36.04    43.35   145.25   181.73
eigval :      242.45   257.40   332.02   382.91   391.82   443.35
eigval :      491.35   706.85   768.67   799.39   883.27   907.62
eigval :      925.41   943.30   956.00   994.58  1058.78  1095.40
eigval :     1098.35  1113.39  1121.19  1138.48  1148.55  1163.53
eigval :     1175.45  1244.53  1250.79  1267.56  1308.56  1332.47
eigval :     1345.38  1354.58  1356.67  1361.26  1373.97  1388.54
eigval :     1465.38  1468.66  1476.20  1479.27  1489.23  1490.79
eigval :     1502.41  2885.98  2935.34  2948.58  2957.30  2958.74
eigval :     2960.64  2961.93  2964.75  2976.19  2976.98  2981.19
eigval :     2986.49  2991.00  3005.85
 reduced masses (amu)
   1: 22.34   2: 43.55   3: 13.10   4: 61.98   5: 40.21   6: 40.41   7: 18.02   8: 14.05
   9: 46.87  10: 10.01  11:  8.60  12:  6.22  13:  5.02  14:  8.76  15:  7.13  16:  9.08
  17:  9.36  18: 10.10  19:  6.13  20:  8.59  21:  9.77  22:  4.72  23:  8.16  24:  6.33
  25:  7.44  26:  8.17  27:  4.72  28:  8.09  29: 11.34  30:  6.20  31:  5.22  32:  3.84
  33:  4.28  34:  3.55  35:  7.46  36:  6.47  37:  5.55  38:  3.71  39:  3.93  40:  4.75
  41:  3.84  42:  4.08  43:  4.40  44:  5.12  45:  4.35  46:  4.17  47:  3.56  48:  2.52
  49:  1.66  50:  1.67  51:  1.86  52:  1.92  53:  1.96  54:  1.82  55:  1.96  56:  1.74
  57:  1.94  58:  1.50  59:  1.93  60:  1.86  61:  1.98  62:  1.88  63:  1.81  64:  1.50
  65:  1.53  66:  1.58  67:  1.59  68:  1.65  69:  1.65
 IR intensities (amu)
   1:  0.32   2:  0.59   3:  0.27   4:  0.83   5:  0.72   6:  0.60   7:  0.50   8:  0.28
   9:  0.89  10:  0.41  11:  0.12  12:  0.32  13:  0.07  14:  0.15  15:  0.17  16:  0.38
  17:  0.21  18:  0.37  19:  0.13  20:  0.26  21:  0.41  22:  0.05  23:  0.32  24:  0.28
  25:  0.14  26:  0.54  27:  0.17  28:  0.34  29:  1.29  30:  0.18  31:  0.23  32:  0.21
  33:  0.20  34:  0.23  35:  0.85  36:  0.41  37:  0.24  38:  0.05  39:  0.16  40:  0.54
  41:  0.22  42:  0.15  43:  0.23  44:  0.03  45:  0.16  46:  0.26  47:  0.28  48:  0.08
  49:  0.06  50:  0.13  51:  0.01  52:  0.09  53:  0.02  54:  0.04  55:  0.03  56:  0.36
  57:  0.35  58:  0.29  59:  0.27  60:  0.15  61:  0.20  62:  0.07  63:  0.36  64:  0.35
  65:  0.37  66:  0.42  67:  0.27  68:  0.52  69:  0.20
 Raman intensities (amu)
   1:  0.00   2:  0.00   3:  0.00   4:  0.00   5:  0.00   6:  0.00   7:  0.00   8:  0.00
   9:  0.00  10:  0.00  11:  0.00  12:  0.00  13:  0.00  14:  0.00  15:  0.00  16:  0.00
  17:  0.00  18:  0.00  19:  0.00  20:  0.00  21:  0.00  22:  0.00  23:  0.00  24:  0.00
  25:  0.00  26:  0.00  27:  0.00  28:  0.00  29:  0.00  30:  0.00  31:  0.00  32:  0.00
  33:  0.00  34:  0.00  35:  0.00  36:  0.00  37:  0.00  38:  0.00  39:  0.00  40:  0.00
  41:  0.00  42:  0.00  43:  0.00  44:  0.00  45:  0.00  46:  0.00  47:  0.00  48:  0.00
  49:  0.00  50:  0.00  51:  0.00  52:  0.00  53:  0.00  54:  0.00  55:  0.00  56:  0.00
  57:  0.00  58:  0.00  59:  0.00  60:  0.00  61:  0.00  62:  0.00  63:  0.00  64:  0.00
  65:  0.00  66:  0.00  67:  0.00  68:  0.00  69:  0.00
 output can be read by thermo (or use thermo option).
 writing <g98.out> molden fake output.
 recommended (thermochemical) frequency scaling factor: 1.0
           -------------------------------------------------
          |             Thermodynamic Functions             |
           -------------------------------------------------

Refinement of some symmetry elements was terminated before convergence was reached.
Some symmetry elements may remain unidentified.
Molecule has no symmetry elements
It seems to be the C1 point group
c1  symmetry found (for desy threshold:  0.10E+00) used in thermo

          ...................................................
          :                      SETUP                      :
          :.................................................:
          :  # frequencies                          63      :
          :  # imaginary freq.                       0      :
          :  linear?                             false      :
          :  only rotor calc.                    false      :
          :  symmetry                               c1      :
          :  rotational number                       1      :
          :  scaling factor                  1.0000000      :
          :  rotor cutoff                   50.0000000 cm⁻¹ :
          :  imag. cutoff                  -20.0000000 cm⁻¹ :
          :.................................................:

    mode    ω/cm⁻¹     T·S(HO)/kcal·mol⁻¹    T·S(FR)/kcal·mol⁻¹   T·S(vib)
   ------------------------------------------------------------------------
       1     17.93    -2.04272 (  1.63%)    -1.36018 ( 98.37%)    -1.37128
       2     28.12    -1.77640 (  9.09%)    -1.22696 ( 90.91%)    -1.27690
       3     36.04    -1.62955 ( 21.26%)    -1.15342 ( 78.74%)    -1.25464
       4     43.35    -1.52044 ( 36.11%)    -1.09871 ( 63.89%)    -1.25101
       5    145.25    -0.81499 ( 98.62%)    -0.74060 (  1.38%)    -0.81396
       6    181.73    -0.68889 ( 99.43%)    -0.67423 (  0.57%)    -0.68880
       7    242.45    -0.53214 ( 99.82%)    -0.58883 (  0.18%)    -0.53224
       8    257.40    -0.50068 ( 99.86%)    -0.57111 (  0.14%)    -0.50078
   ------------------------------------------------------------------------

   temp. (K)  partition function   enthalpy   heat capacity  entropy
                                   cal/mol     cal/K/mol   cal/K/mol   J/K/mol
 298.15  VIB  0.591E+05             5119.484     31.817     32.915
         ROT  0.255E+07              888.752      2.981     32.297
         INT  0.151E+12             6008.236     34.798     65.212
         TR   0.262E+28             1481.254      4.968     41.676
         TOT                        7489.4899    39.7663   106.8877   447.2182

       T/K    H(0)-H(T)+PV         H(T)/Eh          T*S/Eh         G(T)/Eh
   ------------------------------------------------------------------------
    298.15    0.119353E-01    0.211136E+00    0.507858E-01    0.160350E+00
   ------------------------------------------------------------------------

         :::::::::::::::::::::::::::::::::::::::::::::::::::::
         ::                  THERMODYNAMIC                  ::
         :::::::::::::::::::::::::::::::::::::::::::::::::::::
         :: total free energy         -30.488222658830 Eh   ::
         ::.................................................::
         :: total energy              -30.648573155453 Eh   ::
         :: zero point energy           0.199201041158 Eh   ::
         :: G(RRHO) w/o ZPVE           -0.038850544535 Eh   ::
         :: G(RRHO) contrib.            0.160350496623 Eh   ::
         :::::::::::::::::::::::::::::::::::::::::::::::::::::

optimized geometry written to: xtbopt.xyz


           -------------------------------------------------
          | TOTAL ENERGY              -30.648573155453 Eh   |
          | TOTAL ENTHALPY            -30.437436852369 Eh   |
          | TOTAL FREE ENERGY         -30.488222658830 Eh   |
          | GRADIENT NORM               0.000323063071 Eh/α |
          | HOMO-LUMO GAP               9.617770505340 eV   |
           -------------------------------------------------

------------------------------------------------------------------------
 * finished run on 2021/11/10 at 00:40:11.066     
------------------------------------------------------------------------
 total:
 * wall-time:     0 d,  0 h,  0 min,  2.207 sec
 *  cpu-time:     0 d,  0 h,  0 min, 19.205 sec
 * ratio c/w:     8.700 speedup
 SCF:
 * wall-time:     0 d,  0 h,  0 min,  0.032 sec
 *  cpu-time:     0 d,  0 h,  0 min,  0.238 sec
 * ratio c/w:     7.368 speedup
 ANC optimizer:
 * wall-time:     0 d,  0 h,  0 min,  1.383 sec
 *  cpu-time:     0 d,  0 h,  0 min, 10.876 sec
 * ratio c/w:     7.867 speedup
 numerical hessian:
 * wall-time:     0 d,  0 h,  0 min,  0.764 sec
 *  cpu-time:     0 d,  0 h,  0 min,  7.910 sec
 * ratio c/w:    10.348 speedup

