      -----------------------------------------------------------      
     |                   =====================                   |     
     |                           x T B                           |     
     |                   =====================                   |     
     |                         S. Grimme                         |     
     |          Mulliken Center for Theoretical Chemistry        |     
     |                    University of Bonn                     |     
      -----------------------------------------------------------      

   * xtb version 6.3.2 (30e43eb) compiled by 'schneider@apollo14' on 2020-08-08

   xtb is free software: you can redistribute it and/or modify it under
   the terms of the GNU Lesser General Public License as published by
   the Free Software Foundation, either version 3 of the License, or
   (at your option) any later version.
   
   xtb is distributed in the hope that it will be useful,
   but WITHOUT ANY WARRANTY; without even the implied warranty of
   MERCHANTABILITY or FITNESS FOR A PARTICULAR PURPOSE.  See the
   GNU Lesser General Public License for more details.
   
   Cite this work as:
   * S. Grimme, C. Bannwarth, P. Shushkov, J. Chem. Theory Comput., 2017,
     13, 1989-2009. DOI: 10.1021/acs.jctc.7b00118
   * C. Bannwarth, S. Ehlert and S. Grimme., J. Chem. Theory Comput., 2019,
     15, 1652-1671. DOI: 10.1021/acs.jctc.8b01176
   * P. Pracht, E. Caldeweyher, S. Ehlert, S. Grimme, ChemRxiv, 2019, preprint.
     DOI: 10.26434/chemrxiv.8326202.v1
   
   for GFN-FF:
   * S. Spicher and S. Grimme, Angew. Chem. Int. Ed., 2020,
     DOI: 10.1002/anie.202004239
   
   for DFT-D4:
   * E. Caldeweyher, C. Bannwarth and S. Grimme, J. Chem. Phys., 2017,
     147, 034112. DOI: 10.1063/1.4993215
   * E. Caldeweyher, S. Ehlert, A. Hansen, H. Neugebauer, S. Spicher,
     C. Bannwarth and S. Grimme, J. Chem. Phys., 2019, 150, 154122.
     DOI: 10.1063/1.5090222
   
   for sTDA-xTB:
   * S. Grimme and C. Bannwarth, J. Chem. Phys., 2016, 145, 054103.
     DOI: 10.1063/1.4959605
   
   in the mass-spec context:
   * V. Asgeirsson, C. Bauer and S. Grimme, Chem. Sci., 2017, 8, 4879.
     DOI: 10.1039/c7sc00601b
   * J. Koopman and S. Grimme, ACS Omega 2019, 4, 12, 15120-15133.
     DOI: 10.1021/acsomega.9b02011
   
   for metadynamics refer to:
   * S. Grimme, J. Chem. Theory Comput., 2019, 155, 2847-2862
     DOI: 10.1021/acs.jctc.9b00143
   
   with help from (in alphabetical order)
   C. Bannwarth, F. Bohle, G. Brandenburg, E. Caldeweyher, M. Checinski,
   S. Dohm, S. Ehlert, S. Ehrlich, F. März, H. Neugebauer, J. Pisarek,
   P. Pracht, P. Shushkov, and S. Spicher.
   
 * started run on 2021/11/10 at 00:39:56.666     

           -------------------------------------------------
          |                Calculation Setup                |
           -------------------------------------------------

          program call               : xtb init.xyz --chrg -1 --gbsa methanol --ohess
          coordinate file            : init.xyz
          omp threads                :                     6
          number of atoms            :                    23
          number of electrons        :                    56
          charge                     :                    -1
          spin                       :                   0.0
          first test random number   :      0.31485570787218

   ID    Z sym.   atoms
    1    6 C      1-3, 5, 8, 11, 20
    2    1 H      4, 6, 7, 9, 10, 12-17, 21-23
    3   35 Br     18
    4    8 O      19

molecular fragmentation (1/2 indicates fragments):
11111111111111111122222
# atoms in fragment 1/2:    18     5
 fragment masses (1/2) :      163.06       31.03
CMA distance (Bohr)    :   7.261
constraining FC (au)   :  0.0500

           -------------------------------------------------
          |                 G F N 2 - x T B                 |
           -------------------------------------------------

        Reference                      10.1021/acs.jctc.8b01176
      * Hamiltonian:
        H0-scaling (s, p, d)           1.850000    2.230000    2.230000
        zeta-weighting                 0.500000
      * Dispersion:
        s8                             2.700000
        a1                             0.520000
        a2                             5.000000
        s9                             5.000000
      * Repulsion:
        kExp                           1.500000    1.000000
        rExp                           1.000000
      * Coulomb:
        alpha                          2.000000
        third order                    shell-resolved
        anisotropic                    true
        a3                             3.000000
        a5                             4.000000
        cn-shift                       1.200000
        cn-exp                         4.000000
        max-rad                        5.000000

      * Solvation model:               GBSA
        Solvent                        methanol
        Parameter file                 internal GFN2-xTB/GBSA
        Dielectric constant                3.2700E+01
        Reference state                gsolv [1 M gas/solution]
        Free energy shift                  3.3569E-03 Eh       2.1065E+00 kcal/mol
        Temperature                        2.9815E+02 K
        Density                            7.9200E-01 kg/L
        Solvent mass                       3.2040E+01 g/mol
        Interaction kernel             Still
        Born radius scaling (c1)           1.6087E+00
        Born radii integrator          GBOBC
        Born offset                        5.6550E-04 a0       1.0686E-03 AA
        H-bond correction              true
        Ion screening                  false
        Surface tension                    1.0000E-05 Eh       1.5569E+01 dyn/cm
        Grid points                               230 per atom

          ...................................................
          :                      SETUP                      :
          :.................................................:
          :  # basis functions                  56          :
          :  # atomic orbitals                  55          :
          :  # shells                           33          :
          :  # electrons                        56          :
          :  max. iterations                   250          :
          :  Hamiltonian                  GFN2-xTB          :
          :  restarted?                      false          :
          :  GBSA solvation                   true          :
          :  PC potential                    false          :
          :  electronic temp.          300.0000000     K    :
          :  accuracy                    1.0000000          :
          :  -> integral cutoff          0.2500000E+02      :
          :  -> integral neglect         0.1000000E-07      :
          :  -> SCF convergence          0.1000000E-05 Eh   :
          :  -> wf. convergence          0.1000000E-03 e    :
          :  Broyden damping             0.4000000          :
          ...................................................

 iter      E             dE          RMSdq      gap      omega  full diag
   1    -30.7734066 -0.307734E+02  0.436E+00    5.82       0.0  T
   2    -30.8873720 -0.113965E+00  0.267E+00    4.17       1.0  T
   3    -30.8959992 -0.862720E-02  0.119E+00    3.27       1.0  T
   4    -30.8989659 -0.296667E-02  0.812E-01    2.85       1.0  T
   5    -30.9001978 -0.123196E-02  0.496E-01    2.96       1.0  T
   6    -30.9010032 -0.805351E-03  0.270E-01    3.08       1.0  T
   7    -30.9012683 -0.265144E-03  0.821E-02    3.05       1.0  T
   8    -30.9012932 -0.248494E-04  0.391E-02    3.02       1.0  T
   9    -30.9012961 -0.293061E-05  0.145E-02    3.00       1.4  T
  10    -30.9012967 -0.550815E-06  0.800E-03    2.99       2.6  T
  11    -30.9012968 -0.149808E-06  0.300E-03    2.99       6.9  T
  12    -30.9012968 -0.357323E-07  0.160E-03    2.99      13.1  T
  13    -30.9012969 -0.579501E-08  0.390E-04    2.99      53.5  T
  14    -30.9012969 -0.328615E-09  0.172E-04    2.99     121.4  T

   *** convergence criteria satisfied after 14 iterations ***

         #    Occupation            Energy/Eh            Energy/eV
      -------------------------------------------------------------
         1        2.0000           -0.8311641             -22.6171
       ...           ...                  ...                  ...
        22        2.0000           -0.4255605             -11.5801
        23        2.0000           -0.4240405             -11.5387
        24        2.0000           -0.4223231             -11.4920
        25        2.0000           -0.3984848             -10.8433
        26        2.0000           -0.3958143             -10.7707
        27        2.0000           -0.3165993              -8.6151
        28        2.0000           -0.3148368              -8.5671 (HOMO)
        29                         -0.2049623              -5.5773 (LUMO)
        30                          0.0391785               1.0661
        31                          0.0465923               1.2678
        32                          0.0539905               1.4692
        33                          0.0627377               1.7072
       ...                                ...                  ...
        55                          0.3988435              10.8531
      -------------------------------------------------------------
                  HL-Gap            0.1098745 Eh            2.9898 eV
             Fermi-level           -0.2598996 Eh           -7.0722 eV

 SCC (total)                   0 d,  0 h,  0 min,  0.036 sec
 SCC setup                      ...        0 min,  0.001 sec (  3.650%)
 Dispersion                     ...        0 min,  0.000 sec (  0.423%)
 classical contributions        ...        0 min,  0.000 sec (  0.100%)
 integral evaluation            ...        0 min,  0.005 sec ( 13.754%)
 iterations                     ...        0 min,  0.017 sec ( 45.854%)
 molecular gradient             ...        0 min,  0.013 sec ( 35.740%)
 printout                       ...        0 min,  0.000 sec (  0.439%)

         :::::::::::::::::::::::::::::::::::::::::::::::::::::
         ::                     SUMMARY                     ::
         :::::::::::::::::::::::::::::::::::::::::::::::::::::
         :: total energy             -30.580977931930 Eh    ::
         :: total w/o Gsasa/hb       -30.569502919246 Eh    ::
         :: gradient norm              0.000235056370 Eh/a0 ::
         :: HOMO-LUMO gap              2.989837093229 eV    ::
         ::.................................................::
         :: SCC energy               -30.901296851827 Eh    ::
         :: -> isotropic ES            0.218350595022 Eh    ::
         :: -> anisotropic ES         -0.015779418591 Eh    ::
         :: -> anisotropic XC         -0.010340756332 Eh    ::
         :: -> dispersion             -0.018944352592 Eh    ::
         :: -> Gsolv                  -0.118145336340 Eh    ::
         ::    -> Gborn               -0.106670323656 Eh    ::
         ::    -> Gsasa               -0.012447525416 Eh    ::
         ::    -> Ghb                 -0.002384416790 Eh    ::
         ::    -> Gshift               0.003356929523 Eh    ::
         :: repulsion energy           0.320149271810 Eh    ::
         :: add. restraining           0.000000000000 Eh    ::
         :: total charge              -1.000000000000 e     ::
         :::::::::::::::::::::::::::::::::::::::::::::::::::::

      ----------------------------------------------------------- 
     |                   =====================                   |
     |                        A N C O P T                        |
     |                   =====================                   |
     |               Approximate Normal Coordinate               |
     |                Rational Function Optimizer                |
      ----------------------------------------------------------- 

          ...................................................
          :                      SETUP                      :
          :.................................................:
          :   optimization level            normal          :
          :   max. optcycles                   200          :
          :   ANC micro-cycles                  20          :
          :   degrees of freedom                63          :
          :.................................................:
          :   RF solver                   davidson          :
          :   write xtbopt.log                true          :
          :   linear?                        false          :
          :   energy convergence         0.5000000E-05 Eh   :
          :   grad. convergence          0.1000000E-02 Eh/α :
          :   maximium RF displ.         1.0000000          :
          :   Hlow (freq-cutoff)         0.1000000E-01      :
          :   Hmax (freq-cutoff)         5.0000000          :
          :   S6 in model hess.         20.0000000          :
          ...................................................

generating ANC from model Hessian ...
Using Lindh-Hessian (1995)
 Shifting diagonal of input Hessian by    9.6569858630130602E-003
 Lowest  eigenvalues of input Hessian
    0.000000    0.000000    0.000000    0.000000    0.000000    0.000000
    0.010000    0.010132    0.010948    0.010998    0.011399    0.016122
    0.018404    0.018884    0.022244    0.024598    0.028972    0.033342
 Highest eigenvalues
    1.194753    1.222021    1.225680    1.262431    1.284110    1.693573


........................................................................
.............................. CYCLE    1 ..............................
........................................................................
   1    -30.9012969 -0.309013E+02  0.325E-05    2.99       0.0  T
   2    -30.9012969 -0.785150E-12  0.208E-05    2.99    1000.2  T
   3    -30.9012969 -0.380140E-12  0.533E-06    2.99    3909.1  T
     SCC iter.                  ...        0 min,  0.008 sec
     gradient                   ...        0 min,  0.011 sec
 * total energy  :   -30.5809779 Eh     change       -0.8082068E-10 Eh
   gradient norm :     0.0002332 Eh/α   predicted     0.0000000E+00 (-100.00%)
   displ. norm   :     0.0076108 α      lambda       -0.6486987E-06
   maximum displ.:     0.0042040 α      in ANC's #5, #14, #1, ...

   *** GEOMETRY OPTIMIZATION CONVERGED AFTER 1 ITERATIONS ***

------------------------------------------------------------------------
 total energy gain   :        -0.0000000 Eh       -0.0000 kcal/mol
 total RMSD          :         0.0000000 a0        0.0000 Å
 total power (kW/mol):        -0.0000002 (step)   -0.0000 (real)
------------------------------------------------------------------------

 ANCopt (total)                0 d,  0 h,  0 min,  0.046 sec
 optimizer setup                ...        0 min,  0.000 sec (  0.255%)
 model hessian                  ...        0 min,  0.014 sec ( 29.595%)
 ANC generation                 ...        0 min,  0.001 sec (  1.910%)
 coordinate transformation      ...        0 min,  0.000 sec (  0.020%)
 single point calculation       ...        0 min,  0.031 sec ( 66.719%)
 optimization log               ...        0 min,  0.000 sec (  0.252%)
 hessian update                 ...        0 min,  0.000 sec (  0.003%)
 rational function              ...        0 min,  0.000 sec (  0.463%)

================
 final structure:
================
23
 xtb: 6.3.2 (30e43eb)
C         2.85335463983881   -1.18440352890687   -0.06540047157359
C         2.96731817713400   -0.01964777517649    0.91334966978032
C         1.28666169508953    1.26379364541120   -0.43270167405862
H         1.93704775501123    0.23759024592715   -2.22817452181810
C         2.68059637588207    1.29290551342454    0.19027646601601
H         1.09536526934691    2.20139475820182   -0.96134837404292
H         0.52626350425610    1.14310495085385    0.34539347249027
C         1.46129566913563   -1.21950638550467   -0.69253380312862
H         2.24977755877617   -0.15451410747382    1.72648696804586
H         3.97109173811858    0.00548080083088    1.34075065470383
C         1.22118709142478    0.09923335605485   -1.40190979762304
H         0.70128244948352   -1.36969553440225    0.08092177143825
H         1.39531136839503   -2.04653207439341   -1.40554886901463
H         3.41015362853106    1.43150033052889   -0.61284516988948
H         2.75771777968704    2.13590655857116    0.87956545833272
H         3.58699174986434   -1.05637984480933   -0.86690991518364
H         3.05323096345239   -2.13259084609400    0.43808127325610
Br       -0.54916534726731    0.06096628754325   -2.24295288053295
O         3.40970593901212    0.45428859682447   -3.46105348473262
C         3.38208256125660   -0.20678973651873   -4.59917957657973
H         2.44603176997047   -0.03253187094191   -5.21474361070403
H         4.23361780486458    0.04885110747359   -5.29744596540646
H         3.43735003975284   -1.33425275959397   -4.48193988938672

 Bond Distances (Angstroems)
 ---------------------------
C1-C2=1.5256         C1-C8=1.5272         C1-H16=1.0941        C1-H17=1.0920        C2-C1=1.5256         C2-C5=1.5257         
C2-H9=1.0928         C2-H10=1.0913        C3-C5=1.5271         C3-H6=1.0932         C3-H7=1.0946         C3-C11=1.5165        
H4-C11=1.1020        C5-C2=1.5257         C5-C3=1.5271         C5-H14=1.0938        C5-H15=1.0917        H6-C3=1.0932         
H7-C3=1.0946         C8-C1=1.5272         C8-C11=1.5166        C8-H12=1.0947        C8-H13=1.0939        H9-C2=1.0928         
H10-C2=1.0913        C11-C3=1.5165        C11-H4=1.1020        C11-C8=1.5166        C11-Br18=1.9603      H12-C8=1.0947        
H13-C8=1.0939        H14-C5=1.0938        H15-C5=1.0917        H16-C1=1.0941        H17-C1=1.0920        Br18-C11=1.9603      
O19-C20=1.3165       C20-O19=1.3165       C20-H21=1.1338       C20-H22=1.1305       C20-H23=1.1349       H21-C20=1.1338       
H22-C20=1.1305       H23-C20=1.1349       
 C  H  Rav=1.1024 sigma=0.0162  Rmin=1.0913  Rmax=1.1349    14
 C  C  Rav=1.5231 sigma=0.0047  Rmin=1.5165  Rmax=1.5272     6
 O  C  Rav=1.3165 sigma=0.0000  Rmin=1.3165  Rmax=1.3165     1
 Br C  Rav=1.9603 sigma=0.0000  Rmin=1.9603  Rmax=1.9603     1

 selected bond angles (degree)
 --------------------
C8-C1-C2=110.43                H16-C1-C2=109.30               H16-C1-C8=108.24               H17-C1-C2=110.70               
H17-C1-C8=109.65               H17-C1-H16=108.46              C5-C2-C1=109.80                H9-C2-C1=109.52                
H9-C2-C5=109.60                H10-C2-C1=109.73               H10-C2-C5=109.80               H10-C2-H9=108.38               
H6-C3-C5=109.92                H7-C3-C5=110.26                H7-C3-H6=108.47                C11-C3-C5=108.35               
C11-C3-H6=110.00               C11-C3-H7=109.85               C3-C5-C2=110.39                H14-C5-C2=109.37               
H14-C5-C3=108.16               H15-C5-C2=110.60               H15-C5-C3=109.68               H15-C5-H14=108.58              
C11-C8-C1=108.45               H12-C8-C1=110.23               H12-C8-C11=109.87              H13-C8-C1=109.88               
H13-C8-C11=110.06              H13-C8-H12=108.36              

 selected dihedral angles (degree)
 ---------------------------------
C5-C2-C1-C8=301.78            C5-C2-C1-H16= 60.76           C5-C2-C1-H17=180.16           H9-C2-C1-C8= 62.17            
H9-C2-C1-H16=181.14           H9-C2-C1-H17=300.55           H10-C2-C1-C8=181.02           H10-C2-C1-H16=300.00          
H10-C2-C1-H17= 59.40          C3-C5-C2-C1= 58.37            C3-C5-C2-H9=298.04            C3-C5-C2-H10=179.09           
H14-C5-C2-C1=299.48           H14-C5-C2-H9=179.14           H14-C5-C2-H10= 60.20          H15-C5-C2-C1=179.94           
H15-C5-C2-H9= 59.61           H15-C5-C2-H10=300.67          C2-C5-C3-H6=180.86            C2-C5-C3-H7= 61.33            
C2-C5-C3-C11=301.08           H14-C5-C3-H6=300.48           H14-C5-C3-H7=180.96           H14-C5-C3-C11= 60.71          
H15-C5-C3-H6= 58.74           H15-C5-C3-H7=299.22           H15-C5-C3-C11=178.97          C11-C8-C1-C2= 58.66           
C11-C8-C1-H16=299.04          C11-C8-C1-H17=180.90          H12-C8-C1-C2=298.34           H12-C8-C1-H16=178.72          
H12-C8-C1-H17= 60.58          H13-C8-C1-C2=178.99           H13-C8-C1-H16= 59.37          H13-C8-C1-H17=301.23          

 CMA Distance (Angstroems)
 ---------------------------
R(CMA):  3.8425
           -------------------------------------------------
          |                Final Singlepoint                |
           -------------------------------------------------

          ...................................................
          :                      SETUP                      :
          :.................................................:
          :  # basis functions                  56          :
          :  # atomic orbitals                  55          :
          :  # shells                           33          :
          :  # electrons                        56          :
          :  max. iterations                   250          :
          :  Hamiltonian                  GFN2-xTB          :
          :  restarted?                      false          :
          :  GBSA solvation                   true          :
          :  PC potential                    false          :
          :  electronic temp.          300.0000000     K    :
          :  accuracy                    1.0000000          :
          :  -> integral cutoff          0.2500000E+02      :
          :  -> integral neglect         0.1000000E-07      :
          :  -> SCF convergence          0.1000000E-05 Eh   :
          :  -> wf. convergence          0.1000000E-03 e    :
          :  Broyden damping             0.4000000          :
          ...................................................

 iter      E             dE          RMSdq      gap      omega  full diag
   1    -30.9012969 -0.309013E+02  0.289E-06    2.99       0.0  T
   2    -30.9012969  0.355271E-14  0.218E-06    2.99    9574.1  T
   3    -30.9012969 -0.390799E-13  0.122E-06    2.99   17149.0  T

   *** convergence criteria satisfied after 3 iterations ***

         #    Occupation            Energy/Eh            Energy/eV
      -------------------------------------------------------------
         1        2.0000           -0.8311649             -22.6171
       ...           ...                  ...                  ...
        22        2.0000           -0.4255604             -11.5801
        23        2.0000           -0.4240402             -11.5387
        24        2.0000           -0.4223229             -11.4920
        25        2.0000           -0.3984851             -10.8433
        26        2.0000           -0.3958147             -10.7707
        27        2.0000           -0.3166012              -8.6152
        28        2.0000           -0.3148387              -8.5672 (HOMO)
        29                         -0.2049625              -5.5773 (LUMO)
        30                          0.0391778               1.0661
        31                          0.0465914               1.2678
        32                          0.0539897               1.4691
        33                          0.0627368               1.7072
       ...                                ...                  ...
        55                          0.3988430              10.8531
      -------------------------------------------------------------
                  HL-Gap            0.1098762 Eh            2.9899 eV
             Fermi-level           -0.2599006 Eh           -7.0723 eV

 SCC (total)                   0 d,  0 h,  0 min,  0.021 sec
 SCC setup                      ...        0 min,  0.002 sec (  8.962%)
 Dispersion                     ...        0 min,  0.001 sec (  5.268%)
 classical contributions        ...        0 min,  0.001 sec (  2.750%)
 integral evaluation            ...        0 min,  0.005 sec ( 21.745%)
 iterations                     ...        0 min,  0.005 sec ( 22.139%)
 molecular gradient             ...        0 min,  0.008 sec ( 35.589%)
 printout                       ...        0 min,  0.001 sec (  3.448%)

         :::::::::::::::::::::::::::::::::::::::::::::::::::::
         ::                     SUMMARY                     ::
         :::::::::::::::::::::::::::::::::::::::::::::::::::::
         :: total energy             -30.580977932011 Eh    ::
         :: total w/o Gsasa/hb       -30.569502922012 Eh    ::
         :: gradient norm              0.000235438950 Eh/a0 ::
         :: HOMO-LUMO gap              2.989884093117 eV    ::
         ::.................................................::
         :: SCC energy               -30.901296851908 Eh    ::
         :: -> isotropic ES            0.218351292164 Eh    ::
         :: -> anisotropic ES         -0.015779168826 Eh    ::
         :: -> anisotropic XC         -0.010341096269 Eh    ::
         :: -> dispersion             -0.018944325121 Eh    ::
         :: -> Gsolv                  -0.118145137200 Eh    ::
         ::    -> Gborn               -0.106670127201 Eh    ::
         ::    -> Gsasa               -0.012447525416 Eh    ::
         ::    -> Ghb                 -0.002384414105 Eh    ::
         ::    -> Gshift               0.003356929523 Eh    ::
         :: repulsion energy           0.320149271810 Eh    ::
         :: add. restraining           0.000000000000 Eh    ::
         :: total charge              -1.000000000000 e     ::
         :::::::::::::::::::::::::::::::::::::::::::::::::::::

           ------------------------------------------------- 
          |                Numerical Hessian                |
           ------------------------------------------------- 
step length          :   0.00500
SCC accuracy         :   0.30000
Hessian scale factor :   1.00000
frozen atoms in %    :   0.00000    0
RMS gradient         :   0.00024
estimated CPU  time      0.24 min
estimated wall time      0.02 min

writing file <hessian>.

 projected vibrational frequencies (cm-1)
eigval :       -0.00    -0.00    -0.00    -0.00     0.00     0.00
eigval :       23.88    30.86    53.81    70.00    92.62   122.95
eigval :      165.70   214.66   237.30   252.98   326.59   423.17
eigval :      428.05   504.17   693.22   829.24   861.88   896.91
eigval :      935.83   941.55   971.52   995.42  1079.43  1089.41
eigval :     1106.41  1127.91  1139.65  1149.68  1182.69  1184.59
eigval :     1203.90  1230.81  1243.42  1245.70  1276.96  1307.98
eigval :     1331.15  1344.21  1348.99  1357.88  1360.33  1474.80
eigval :     1478.45  1480.26  1484.03  1488.20  1499.92  1516.91
eigval :     1519.93  2321.09  2352.94  2550.91  2824.69  2940.29
eigval :     2945.02  2956.62  2959.16  2962.10  2966.31  2970.89
eigval :     2974.26  2977.03  2985.59
           -------------------------------------------------
          |                Property Printout                |
           -------------------------------------------------

    * Orbital Energies and Occupations

         #    Occupation            Energy/Eh            Energy/eV
      -------------------------------------------------------------
         1        2.0000           -0.8311649             -22.6171
       ...           ...                  ...                  ...
        16        2.0000           -0.4803740             -13.0716
        17        2.0000           -0.4726973             -12.8627
        18        2.0000           -0.4715405             -12.8313
        19        2.0000           -0.4531001             -12.3295
        20        2.0000           -0.4433036             -12.0629
        21        2.0000           -0.4416456             -12.0178
        22        2.0000           -0.4255604             -11.5801
        23        2.0000           -0.4240402             -11.5387
        24        2.0000           -0.4223229             -11.4920
        25        2.0000           -0.3984851             -10.8433
        26        2.0000           -0.3958147             -10.7707
        27        2.0000           -0.3166012              -8.6152
        28        2.0000           -0.3148387              -8.5672 (HOMO)
        29                         -0.2049625              -5.5773 (LUMO)
        30                          0.0391778               1.0661
        31                          0.0465914               1.2678
        32                          0.0539897               1.4691
        33                          0.0627368               1.7072
        34                          0.0860762               2.3423
        35                          0.0922372               2.5099
        36                          0.0949641               2.5841
        37                          0.1133995               3.0858
        38                          0.1152928               3.1373
        39                          0.1283026               3.4913
       ...                                ...                  ...
        55                          0.3988430              10.8531
      -------------------------------------------------------------
                  HL-Gap            0.1098762 Eh            2.9899 eV
             Fermi-level           -0.2599006 Eh           -7.0723 eV

     #   Z          covCN         q      C6AA      α(0)
     1   6 C        3.809    -0.052    21.506     6.601
     2   6 C        3.806    -0.060    21.650     6.624
     3   6 C        3.885    -0.045    21.332     6.566
     4   1 H        0.924     0.050     2.322     2.383
     5   6 C        3.809    -0.055    21.552     6.608
     6   1 H        0.924     0.025     2.651     2.546
     7   1 H        0.924     0.047     2.361     2.403
     8   6 C        3.886    -0.042    21.278     6.558
     9   1 H        0.924     0.048     2.345     2.395
    10   1 H        0.924     0.039     2.461     2.453
    11   6 C        3.800     0.062    19.541     6.294
    12   1 H        0.924     0.046     2.373     2.409
    13   1 H        0.924     0.019     2.755     2.596
    14   1 H        0.924     0.026     2.645     2.543
    15   1 H        0.924     0.043     2.409     2.427
    16   1 H        0.924     0.022     2.708     2.573
    17   1 H        0.924     0.040     2.448     2.447
    18  35 Br       1.073    -0.242   191.816    22.331
    19   8 O        0.855    -0.824    32.312     7.621
    20   6 C        3.605     0.205    17.849     6.106
    21   1 H        0.917    -0.118     6.224     3.902
    22   1 H        0.917    -0.114     6.081     3.857
    23   1 H        0.916    -0.119     6.285     3.921

 Mol. C6AA /au·bohr⁶  :       5778.442684
 Mol. C8AA /au·bohr⁸  :     153846.572013
 Mol. α(0) /au        :        114.165937


Wiberg/Mayer (AO) data.
largest (>0.10) Wiberg bond orders for each atom

 ---------------------------------------------------------------------------
     #   Z sym  total        # sym  WBO       # sym  WBO       # sym  WBO
 ---------------------------------------------------------------------------
     1   6 C    3.997 --     2 C    1.010     8 C    0.998    16 H    0.978
                            17 H    0.975
     2   6 C    3.997 --     5 C    1.010     1 C    1.010    10 H    0.977
                             9 H    0.976
     3   6 C    3.996 --    11 C    1.012     5 C    0.998     6 H    0.978
                             7 H    0.975
     4   1 H    0.998 --    11 C    0.944
     5   6 C    3.997 --     2 C    1.010     3 C    0.998    14 H    0.978
                            15 H    0.975
     6   1 H    0.999 --     3 C    0.978
     7   1 H    0.998 --     3 C    0.975
     8   6 C    3.997 --    11 C    1.013     1 C    0.998    13 H    0.979
                            12 H    0.975
     9   1 H    0.998 --     2 C    0.976
    10   1 H    0.998 --     2 C    0.977
    11   6 C    3.928 --     8 C    1.013     3 C    1.012     4 H    0.944
                            18 Br   0.902
    12   1 H    0.998 --     8 C    0.975
    13   1 H    1.000 --     8 C    0.979
    14   1 H    0.999 --     5 C    0.978
    15   1 H    0.998 --     5 C    0.975
    16   1 H    1.000 --     1 C    0.978
    17   1 H    0.998 --     1 C    0.975
    18  35 Br   0.965 --    11 C    0.902
    19   8 O    1.367 --    20 C    1.164
    20   6 C    3.977 --    19 O    1.164    22 H    0.939    21 H    0.937
                            23 H    0.936
    21   1 H    0.986 --    20 C    0.937
    22   1 H    0.987 --    20 C    0.939
    23   1 H    0.986 --    20 C    0.936
 ---------------------------------------------------------------------------

Topologies differ in total number of bonds
Writing topology from bond orders to xtbtopo.mol

molecular dipole:
                 x           y           z       tot (Debye)
 q only:       -5.297      -0.467       7.780
   full:       -3.997      -0.595       7.376      21.376
molecular quadrupole (traceless):
                xx          xy          yy          xz          yz          zz
 q only:      -10.941      -4.515      45.753      64.666       4.276     -34.812
  q+dip:      -15.376      -6.026      44.610      49.802       5.199     -29.235
   full:      -14.691      -6.086      44.252      51.169       5.629     -29.561

           -------------------------------------------------
          |                Geometry Summary                 |
           -------------------------------------------------

      molecular mass/u    :      194.0892545
   center of mass at/Å    :        1.2167066       0.0593298      -1.6698755
  moments of inertia/u·Å² :        0.5083596E+03   0.6590145E+03   0.9597235E+03
rotational constants/cm⁻¹ :        0.3316084E-01   0.2558006E-01   0.1756509E-01

 * 21 selected distances

     #   Z          #   Z                                           value/Å
     1   6 C        2   6 C                                       1.5256459
     2   6 C        5   6 C                                       1.5257262
     3   6 C        5   6 C                                       1.5270898
     3   6 C        6   1 H                                       1.0932326
     3   6 C        7   1 H                                       1.0946247
     1   6 C        8   6 C                                       1.5272055
     2   6 C        9   1 H                                       1.0928155
     2   6 C       10   1 H                                       1.0912673 (min)
     3   6 C       11   6 C                                       1.5165263
     4   1 H       11   6 C                                       1.1019585
     8   6 C       11   6 C                                       1.5165556
     8   6 C       12   1 H                                       1.0947193
     8   6 C       13   1 H                                       1.0939451
     5   6 C       14   1 H                                       1.0938312
     5   6 C       15   1 H                                       1.0916583
     1   6 C       16   1 H                                       1.0940891
     1   6 C       17   1 H                                       1.0920181
    11   6 C       18  35 Br                                      1.9603483 (max)
    20   6 C       21   1 H                                       1.1337883
    20   6 C       22   1 H                                       1.1305045
    20   6 C       23   1 H                                       1.1348888

 * 3 distinct bonds (by element types)

   Z      Z             #   av. dist./Å        max./Å        min./Å
   1 H    6 C          14     1.1023815     1.1348888     1.0912673
   6 C    6 C           6     1.5231249     1.5272055     1.5165263
   6 C   35 Br          1     1.9603483     1.9603483     1.9603483

           -------------------------------------------------
          |               Frequency Printout                |
           -------------------------------------------------
 projected vibrational frequencies (cm-1)
eigval :       -0.00    -0.00    -0.00    -0.00     0.00     0.00
eigval :       23.88    30.86    53.81    70.00    92.62   122.95
eigval :      165.70   214.66   237.30   252.98   326.59   423.17
eigval :      428.05   504.17   693.22   829.24   861.88   896.91
eigval :      935.83   941.55   971.52   995.42  1079.43  1089.41
eigval :     1106.41  1127.91  1139.65  1149.68  1182.69  1184.59
eigval :     1203.90  1230.81  1243.42  1245.70  1276.96  1307.98
eigval :     1331.15  1344.21  1348.99  1357.88  1360.33  1474.80
eigval :     1478.45  1480.26  1484.03  1488.20  1499.92  1516.91
eigval :     1519.93  2321.09  2352.94  2550.91  2824.69  2940.29
eigval :     2945.02  2956.62  2959.16  2962.10  2966.31  2970.89
eigval :     2974.26  2977.03  2985.59
 reduced masses (amu)
   1: 43.71   2: 41.16   3: 43.24   4: 32.49   5: 22.55   6: 16.40   7: 12.18   8: 21.48
   9:  9.92  10: 12.53  11:  5.32  12: 18.37  13: 13.37  14: 18.68  15:  7.71  16: 41.20
  17:  7.04  18:  8.24  19:  9.57  20:  7.55  21: 10.44  22:  4.41  23:  7.74  24:  6.27
  25:  7.31  26:  4.25  27:  7.16  28:  7.33  29:  1.75  30:  6.60  31:  4.91  32: 13.16
  33:  7.80  34:  7.54  35:  4.48  36:  4.53  37:  5.05  38:  3.86  39:  3.47  40:  3.42
  41:  2.82  42:  3.42  43:  4.46  44:  4.50  45:  4.52  46:  4.71  47:  4.93  48:  1.92
  49:  1.96  50:  2.14  51:  2.03  52:  1.98  53:  2.02  54:  1.58  55:  1.55  56:  1.59
  57:  1.62  58:  1.19  59:  1.82  60:  1.91  61:  1.88  62:  1.87  63:  1.58  64:  1.92
  65:  1.57  66:  1.99  67:  1.51  68:  1.52  69:  1.59
 IR intensities (amu)
   1:  0.29   2:  0.29   3:  0.33   4:  0.21   5:  0.07   6:  0.13   7:  0.71   8:  0.68
   9:  0.30  10:  0.55  11:  0.36  12:  0.73  13:  1.02  14:  0.36  15:  0.19  16:  0.17
  17:  0.17  18:  0.15  19:  0.01  20:  0.05  21:  0.36  22:  0.05  23:  0.27  24:  0.04
  25:  0.34  26:  0.07  27:  0.04  28:  0.24  29:  0.05  30:  0.28  31:  0.14  32:  2.71
  33:  0.13  34:  0.57  35:  0.81  36:  0.91  37:  0.14  38:  0.15  39:  0.14  40:  0.16
  41:  0.20  42:  0.06  43:  0.13  44:  0.25  45:  0.11  46:  0.21  47:  0.11  48:  0.06
  49:  0.13  50:  0.30  51:  0.07  52:  0.13  53:  0.06  54:  0.44  55:  0.41  56:  0.97
  57:  1.01  58:  0.61  59:  0.47  60:  0.14  61:  0.25  62:  0.15  63:  0.20  64:  0.22
  65:  0.25  66:  0.49  67:  0.31  68:  0.40  69:  0.32
 Raman intensities (amu)
   1:  0.00   2:  0.00   3:  0.00   4:  0.00   5:  0.00   6:  0.00   7:  0.00   8:  0.00
   9:  0.00  10:  0.00  11:  0.00  12:  0.00  13:  0.00  14:  0.00  15:  0.00  16:  0.00
  17:  0.00  18:  0.00  19:  0.00  20:  0.00  21:  0.00  22:  0.00  23:  0.00  24:  0.00
  25:  0.00  26:  0.00  27:  0.00  28:  0.00  29:  0.00  30:  0.00  31:  0.00  32:  0.00
  33:  0.00  34:  0.00  35:  0.00  36:  0.00  37:  0.00  38:  0.00  39:  0.00  40:  0.00
  41:  0.00  42:  0.00  43:  0.00  44:  0.00  45:  0.00  46:  0.00  47:  0.00  48:  0.00
  49:  0.00  50:  0.00  51:  0.00  52:  0.00  53:  0.00  54:  0.00  55:  0.00  56:  0.00
  57:  0.00  58:  0.00  59:  0.00  60:  0.00  61:  0.00  62:  0.00  63:  0.00  64:  0.00
  65:  0.00  66:  0.00  67:  0.00  68:  0.00  69:  0.00
 output can be read by thermo (or use thermo option).
 writing <g98.out> molden fake output.
 recommended (thermochemical) frequency scaling factor: 1.0
           -------------------------------------------------
          |             Thermodynamic Functions             |
           -------------------------------------------------

Refinement of some symmetry elements was terminated before convergence was reached.
Some symmetry elements may remain unidentified.
Molecule has no symmetry elements
It seems to be the C1 point group
c1  symmetry found (for desy threshold:  0.10E+00) used in thermo

          ...................................................
          :                      SETUP                      :
          :.................................................:
          :  # frequencies                          63      :
          :  # imaginary freq.                       0      :
          :  linear?                             false      :
          :  only rotor calc.                    false      :
          :  symmetry                               c1      :
          :  rotational number                       1      :
          :  scaling factor                  1.0000000      :
          :  rotor cutoff                   50.0000000 cm⁻¹ :
          :  imag. cutoff                  -20.0000000 cm⁻¹ :
          :.................................................:

    mode    ω/cm⁻¹     T·S(HO)/kcal·mol⁻¹    T·S(FR)/kcal·mol⁻¹   T·S(vib)
   ------------------------------------------------------------------------
       1     23.88    -1.87305 (  4.95%)    -1.27518 ( 95.05%)    -1.30475
       2     30.86    -1.72135 ( 12.67%)    -1.19929 ( 87.33%)    -1.26544
       3     53.81    -1.39306 ( 57.29%)    -1.03468 ( 42.71%)    -1.23998
       4     70.00    -1.23836 ( 79.34%)    -0.95679 ( 20.66%)    -1.18019
       5     92.62    -1.07450 ( 92.17%)    -0.87384 (  7.83%)    -1.05879
       6    122.95    -0.91037 ( 97.34%)    -0.78994 (  2.66%)    -0.90717
       7    165.70    -0.74050 ( 99.18%)    -0.70156 (  0.82%)    -0.74018
       8    214.66    -0.59741 ( 99.71%)    -0.62489 (  0.29%)    -0.59749
       9    237.30    -0.54353 ( 99.80%)    -0.59518 (  0.20%)    -0.54363
      10    252.98    -0.50975 ( 99.85%)    -0.57623 (  0.15%)    -0.50985
   ------------------------------------------------------------------------

   temp. (K)  partition function   enthalpy   heat capacity  entropy
                                   cal/mol     cal/K/mol   cal/K/mol   J/K/mol
 298.15  VIB  0.805E+05             5628.753     33.271     37.120
         ROT  0.137E+07              888.752      2.981     31.061
         INT  0.110E+12             6517.506     36.252     68.181
         TR   0.262E+28             1481.254      4.968     41.676
         TOT                        7998.7595    41.2201   109.8572   459.6426

       T/K    H(0)-H(T)+PV         H(T)/Eh          T*S/Eh         G(T)/Eh
   ------------------------------------------------------------------------
    298.15    0.127468E-01    0.206420E+00    0.521967E-01    0.154224E+00
   ------------------------------------------------------------------------

         :::::::::::::::::::::::::::::::::::::::::::::::::::::
         ::                  THERMODYNAMIC                  ::
         :::::::::::::::::::::::::::::::::::::::::::::::::::::
         :: total free energy         -30.426754312993 Eh   ::
         ::.................................................::
         :: total energy              -30.580977931853 Eh   ::
         :: zero point energy           0.193673491028 Eh   ::
         :: G(RRHO) w/o ZPVE           -0.039449872168 Eh   ::
         :: G(RRHO) contrib.            0.154223618860 Eh   ::
         :::::::::::::::::::::::::::::::::::::::::::::::::::::

optimized geometry written to: xtbopt.xyz


           -------------------------------------------------
          | TOTAL ENERGY              -30.580977931853 Eh   |
          | TOTAL ENTHALPY            -30.374557606224 Eh   |
          | TOTAL FREE ENERGY         -30.426754312993 Eh   |
          | GRADIENT NORM               0.000235452188 Eh/α |
          | HOMO-LUMO GAP               2.989883373623 eV   |
           -------------------------------------------------

------------------------------------------------------------------------
 * finished run on 2021/11/10 at 00:39:57.576     
------------------------------------------------------------------------
 total:
 * wall-time:     0 d,  0 h,  0 min,  0.910 sec
 *  cpu-time:     0 d,  0 h,  0 min,  9.055 sec
 * ratio c/w:     9.949 speedup
 SCF:
 * wall-time:     0 d,  0 h,  0 min,  0.037 sec
 *  cpu-time:     0 d,  0 h,  0 min,  0.256 sec
 * ratio c/w:     6.989 speedup
 ANC optimizer:
 * wall-time:     0 d,  0 h,  0 min,  0.070 sec
 *  cpu-time:     0 d,  0 h,  0 min,  0.530 sec
 * ratio c/w:     7.570 speedup
 numerical hessian:
 * wall-time:     0 d,  0 h,  0 min,  0.778 sec
 *  cpu-time:     0 d,  0 h,  0 min,  8.090 sec
 * ratio c/w:    10.393 speedup

