23
 energy: -30.530573254322 gnorm: 0.198171381128 xtb: 6.3.2 (30e43eb)
C         2.84000000000000   -1.16090000000000   -0.35360000000000
C         3.21810000000000    0.00030000000000    0.54080000000000
C         1.53190000000000    1.35890000000000   -0.67420000000000
H        -0.18632000000000    0.33872000000000   -1.13808000000000
C         2.99940000000000    1.29330000000000   -0.21960000000000
H         1.36480000000000    2.38930000000000   -1.07480000000000
H         0.91330000000000    1.31120000000000    0.25730000000000
C         1.38560000000000   -1.02560000000000   -0.87140000000000
H         2.57220000000000   -0.01040000000000    1.44720000000000
H         4.27650000000000   -0.08740000000000    0.86760000000000
C         1.01120000000000    0.28640000000000   -1.73420000000000
H         0.69390000000000   -1.07600000000000    0.00000000000000
H         1.24840000000000   -1.99500000000000   -1.40240000000000
H         3.69070000000000    1.37880000000000   -1.07990000000000
H         3.21380000000000    2.14190000000000    0.46570000000000
H         3.55680000000000   -1.22530000000000   -1.19420000000000
H         2.94010000000000   -2.10290000000000    0.22870000000000
Br       -2.72464000000000    0.41583000000000   -0.12051000000000
O         1.60005000000000    0.93615000000000   -2.88549000000000
C         2.76780000000000    0.00060000000000   -3.38280000000000
H         2.75790000000000    0.16920000000000   -4.47880000000000
H         3.78010000000000    0.25740000000000   -3.01480000000000
H         2.57500000000000   -1.08390000000000   -3.25020000000000
23
 energy: -30.607501095571 gnorm: 0.096749216988 xtb: 6.3.2 (30e43eb)
C         2.85150854494824   -1.16566720588102   -0.35130950301299
C         3.22604040981976   -0.00016588660642    0.54475298802348
C         1.54384159545898    1.41728627144252   -0.60513363821226
H        -0.17322620317046    0.34777771329441   -1.33401005267144
C         3.00845486148230    1.30223380006049   -0.20352295479972
H         1.35463600833018    2.39632066280445   -1.07328086344712
H         0.91435761857254    1.33599477000587    0.28909455252764
C         1.41658083121525   -1.05502001495104   -0.88487569260957
H         2.58424783927199   -0.00876744760957    1.43989338316266
H         4.27148899405106   -0.08858026312580    0.87046505911283
C         1.06315687433362    0.32254019723170   -1.57612807971123
H         0.72071636832571   -1.06715498155283   -0.02807724835921
H         1.21777876008204   -1.98440126615798   -1.44048041076185
H         3.67794424066486    1.37689662919851   -1.07042150352195
H         3.22018779587185    2.14881133066533    0.46090556754983
H         3.55489710214294   -1.22596865627710   -1.18772080134799
H         2.93220767687050   -2.10246570634266    0.21895973085869
Br       -2.72995184382268    0.41527735052469   -0.11777722377226
O         1.58250732171773    0.77123425066017   -2.87039951741633
C         2.74782339284933   -0.01043531446573   -3.41500796334025
H         2.75110581501813    0.17618889152757   -4.49153069964722
H         3.72615233586234    0.28051351530610   -3.00158801525409
H         2.56413366010382   -1.07184863975166   -3.24048711334959
23
 energy: -30.638344763318 gnorm: 0.035923731096 xtb: 6.3.2 (30e43eb)
C         2.86125635769958   -1.17002875352549   -0.35003383713635
C         3.22702719365595    0.00072473363740    0.55055685859611
C         1.54491155480521    1.43098883621624   -0.58160211656138
H        -0.01746735363139    0.37639608413429   -1.47895038585615
C         3.00505365546509    1.31541698068633   -0.18285143071790
H         1.34810474073062    2.38150324629783   -1.07478659789817
H         0.91773191492896    1.35978258679999    0.29866751931183
C         1.43746722296506   -1.04443480995426   -0.88271887345298
H         2.59001877130305   -0.01176642666973    1.43642573041223
H         4.26290618028672   -0.08896933733147    0.87297753201836
C         1.09322965641262    0.31900880226076   -1.51220108821467
H         0.74022001862776   -1.07781126323980   -0.03937263173859
H         1.19918648060012   -1.91865090807885   -1.49767679952200
H         3.65453002733103    1.37735850260319   -1.05601454175938
H         3.23417295221300    2.15613171349636    0.46783513141103
H         3.56065104662531   -1.22479774485783   -1.17947547747499
H         2.92936073004788   -2.10278476636221    0.21087257549040
Br       -2.75203246181370    0.41124619602527   -0.11613536371230
O         1.56775129120099    0.65022328836436   -2.86481453752957
C         2.69523758327010   -0.03178639598612   -3.40405539911800
H         2.71650457197209    0.19460627328265   -4.46502278882035
H         3.64961601435634    0.29922094119815   -2.97221513038670
H         2.56115185094837   -1.09097777899658   -3.24708834733999
23
 energy: -30.642793813139 gnorm: 0.037911862030 xtb: 6.3.2 (30e43eb)
C         2.87009988407738   -1.16935085946198   -0.34689578521847
C         3.23480893249031    0.00162790915245    0.56017118060985
C         1.54935630772898    1.44219234194016   -0.56648774687466
H        -0.01826728944134    0.35448752142587   -1.66697807265312
C         3.01271013220349    1.32733638354429   -0.16071933227819
H         1.35689116212927    2.38967217107282   -1.07112125552171
H         0.92286960171799    1.40321751144554    0.32542571635329
C         1.44123586597115   -1.02977425943178   -0.86784022068644
H         2.60015461551915   -0.01960859715579    1.44808939003359
H         4.27380486264495   -0.08965344148741    0.87656924532098
C         1.11068074719579    0.31530283660643   -1.50784806037110
H         0.75059151386756   -1.11591471089946   -0.02170198908513
H         1.19893028589343   -1.85891631906209   -1.55095441770342
H         3.64596765369452    1.38190727403855   -1.04728820372118
H         3.27063274437202    2.16378928675520    0.49018807750469
H         3.57468709138356   -1.21963092350753   -1.17516583023501
H         2.93970493009069   -2.10549954347906    0.20992669120933
Br       -2.77049772163716    0.41401098106988   -0.09884279830845
O         1.54570383303152    0.62250195571635   -2.85890494148481
C         2.65829107168149   -0.05551692366480   -3.37783009157160
H         2.66644206700617    0.19979473200884   -4.43867012528457
H         3.60589600934214    0.29922313531426   -2.94893262533096
H         2.58589569903765   -1.14059846194030   -3.27186880470247
23
 energy: -30.643790673759 gnorm: 0.043306385178 xtb: 6.3.2 (30e43eb)
C         2.87158024254035   -1.16639806496523   -0.35004034776057
C         3.23114645581754    0.00185437775228    0.56592731075964
C         1.54644506633964    1.45712907749352   -0.56900186440565
H         0.05187254115294    0.37926703915751   -1.60244101811275
C         3.00941128609656    1.32965668807213   -0.15334987042035
H         1.36176650501366    2.40414476190249   -1.08040853201834
H         0.91119273246444    1.43026361596359    0.32180003265440
C         1.44413409424570   -1.03341651515494   -0.88446291266938
H         2.59538739373421   -0.02578342258651    1.45375830469213
H         4.27103466736790   -0.08679858459984    0.88520931336221
C         1.10033684242057    0.31737532700490   -1.50435371119774
H         0.75295954334858   -1.13560719697529   -0.04126561671699
H         1.20357257727770   -1.84127014761453   -1.59087160630787
H         3.64311744283405    1.38510532183075   -1.03900485952626
H         3.27494564807009    2.16301465550736    0.50080745690741
H         3.58631424224676   -1.21303218428048   -1.17096126670754
H         2.94103495467360   -2.10384559004789    0.20600367574319
Br       -2.80593414614331    0.41018558306442   -0.09687659037665
O         1.52982231569355    0.58291353204851   -2.85993030977128
C         2.65449196703014   -0.06810170532300   -3.38521916598926
H         2.66053885609405    0.19333390005252   -4.44637159707925
H         3.59086679670378    0.29103958220073   -2.93450138067086
H         2.60055197497944   -1.16043005050176   -3.29212544438697
23
 energy: -30.645165674536 gnorm: 0.010538449095 xtb: 6.3.2 (30e43eb)
C         2.87310954444991   -1.16360025088555   -0.35166928587667
C         3.23082394735716    0.00235436311347    0.56613251996296
C         1.54780753164314    1.45910704428200   -0.57072464443140
H         0.00878955203391    0.39355530619041   -1.60286904669439
C         3.00889512351333    1.32990872145561   -0.15123875028199
H         1.36970481466996    2.40914597251012   -1.07890619555000
H         0.90656213370800    1.43046643123827    0.31471515492441
C         1.44449411365702   -1.03331259066334   -0.88538602973221
H         2.59663335485948   -0.02843533854046    1.45575122138298
H         4.27175066669256   -0.08519906362654    0.88457430215330
C         1.10352632052049    0.32325229591886   -1.50626152569585
H         0.74984468557664   -1.14140854672324   -0.04606406951510
H         1.21811739480579   -1.84331421382638   -1.58596158292619
H         3.64727121175186    1.39033336926440   -1.03346266823856
H         3.27052817581939    2.16109035610563    0.50726012742036
H         3.58795810317784   -1.20671994347477   -1.17330248544332
H         2.94732923057276   -2.10261467359704    0.20230394780896
Br       -2.83032237089750    0.40291080347683   -0.07497233284152
O         1.54705159836369    0.58679255672433   -2.85353425044005
C         2.66745643490835   -0.07288947127087   -3.39249533924325
H         2.66484669960315    0.18781406305760   -4.45269727142240
H         3.60653146266681    0.26915637733282   -2.94269726121584
H         2.58788027054812   -1.15779356806102   -3.29617453410302
23
 energy: -30.645495528480 gnorm: 0.008350707402 xtb: 6.3.2 (30e43eb)
C         2.87455912431124   -1.16087758417856   -0.35272697564418
C         3.22951028965614    0.00275985991167    0.56869343831016
C         1.55732627371759    1.46472270028156   -0.57475239813346
H         0.01348991145508    0.37769147021163   -1.60020134364510
C         3.01435179834687    1.33276472734233   -0.14563362998624
H         1.38485551901448    2.41398395718059   -1.08677375577489
H         0.90929583562137    1.44002057662336    0.30560362583212
C         1.44729526171416   -1.03065584109982   -0.88922030449220
H         2.59298036276086   -0.03004330326873    1.45645642554929
H         4.26924250076556   -0.08643172272119    0.89045567912768
C         1.11056051479662    0.32928037626020   -1.50756786555146
H         0.74846547776387   -1.14801977821021   -0.05521196939930
H         1.22604544488235   -1.83243421104043   -1.59947916713370
H         3.65789688551320    1.39498493124134   -1.02389081283359
H         3.27116161945342    2.16169838904673    0.51712314655245
H         3.59071670967801   -1.20104674410801   -1.17323534281155
H         2.94784560274913   -2.10214140332170    0.19774753934814
Br       -2.87338540795183    0.40109913207301   -0.05307405045488
O         1.53431961278971    0.57811386735000   -2.86267981942394
C         2.66510464224604   -0.07869490247445   -3.38960526136023
H         2.66234512080803    0.18550735361449   -4.44789542840736
H         3.60318515274664    0.26412260591912   -2.94091505581223
H         2.58942174716397   -1.16580445663137   -3.30089667385390
23
 energy: -30.645970489407 gnorm: 0.006080284354 xtb: 6.3.2 (30e43eb)
C         2.88173507056922   -1.15826835521638   -0.35261587928930
C         3.22744511756613    0.00207966446268    0.57561463140107
C         1.57421728465215    1.47189986035752   -0.58806333165748
H         0.02077810770794    0.39163333250849   -1.58933836135692
C         3.02328628883729    1.33497621651436   -0.13566025126142
H         1.41719673911036    2.41954073394945   -1.10986438324242
H         0.91400794342414    1.46184166102044    0.28371156861624
C         1.45724112598867   -1.02873274223511   -0.89464408632873
H         2.58368828058504   -0.03419187475093    1.45791544895789
H         4.26436986798372   -0.08874318383712    0.90636089137419
C         1.11708665531482    0.33227174772149   -1.51189501875176
H         0.75219229444555   -1.16570195537141   -0.06999511460256
H         1.24653596652578   -1.81312040895172   -1.62508990406973
H         3.68120383510719    1.40161144791912   -1.00308745421694
H         3.26890332259375    2.16001664214958    0.53615786898552
H         3.60056776492134   -1.19051500019124   -1.17102210201219
H         2.95571418786171   -2.10308794101889    0.19167570776236
Br       -2.96887673212242    0.39209482930881   -0.00850069343107
O         1.50977396871758    0.55188009632289   -2.87364054176339
C         2.65760583758710   -0.09005740360269   -3.39207901221620
H         2.66388837353820    0.18666034913301   -4.44662258781858
H         3.58650103120208    0.25787170675716   -2.92905980129425
H         2.59152766788673   -1.18135942294694   -3.31793759378172
23
 energy: -30.646385186913 gnorm: 0.005885582214 xtb: 6.3.2 (30e43eb)
C         2.88767157767663   -1.15465773030389   -0.35334636542056
C         3.22452505291798    0.00037154438361    0.58399510366837
C         1.59848366301037    1.48067507470272   -0.60854091807050
H         0.02849393453704    0.39647673097403   -1.56757727797002
C         3.03787301557584    1.33551935074015   -0.12725470670648
H         1.46217052768279    2.42432954895712   -1.14502839650034
H         0.92700209952507    1.49366445849389    0.25488083370107
C         1.46564207825022   -1.03077549942279   -0.90269315542787
H         2.56737236111686   -0.03591729339063    1.45637557117337
H         4.25623530838703   -0.09499783426444    0.93050514164876
C         1.12542025063991    0.33412891019170   -1.51823383955335
H         0.75757284502328   -1.18225111427388   -0.08529189545878
H         1.26773289950353   -1.80398877507879   -1.64343729689136
H         3.71821692067692    1.40527195121203   -0.97806605461465
H         3.26858100707787    2.15680629774647    0.55508070179290
H         3.61157485087406   -1.17877716971605   -1.16752450893367
H         2.96390978056497   -2.10179587178548    0.18578864383706
Br       -3.10468774655059    0.37705241733282    0.04989628125501
O         1.48559238144152    0.52118399279828   -2.88613588623632
C         2.64980411481490   -0.09616354527391   -3.40075203645950
H         2.67068636369751    0.19388602116738   -4.45086883642251
H         3.56314901229771    0.25907685500596   -2.91283114680567
H         2.59356770126498   -1.18851832019225   -3.33661995560088
23
 energy: -30.646685885323 gnorm: 0.006621743325 xtb: 6.3.2 (30e43eb)
C         2.89344009297713   -1.15715821112303   -0.35157430634251
C         3.22117114618681   -0.00383761244337    0.59054786820589
C         1.62008979905694    1.48469468190785   -0.63075477441786
H         0.03127940790797    0.40828379826559   -1.55004750235274
C         3.05170818668999    1.33091455773973   -0.12621261982143
H         1.50279700386639    2.42143538622414   -1.18442954270262
H         0.94263959412373    1.52393090564827    0.22763284626859
C         1.47262118135730   -1.03463434548847   -0.90363619186503
H         2.54900736454732   -0.03564024966422    1.45177810508274
H         4.24650904016715   -0.10448078552558    0.95419093187664
C         1.12835589185162    0.32918266554326   -1.52241567293110
H         0.76425135592166   -1.18962123584734   -0.08855905201482
H         1.27860941024521   -1.80589121339047   -1.64740536643899
H         3.75260989452550    1.39878676461133   -0.96121088635196
H         3.27071803091407    2.15190788116923    0.56080855497275
H         3.62042880676398   -1.17471597376334   -1.16320174087380
H         2.97175667870111   -2.10538749168618    0.18467948828434
Br       -3.22901602133699    0.36287275035527    0.10156919282498
O         1.45875186441412    0.49390093723883   -2.89949776458405
C         2.64608849297757   -0.08971406084752   -3.40526841248664
H         2.67491999423444    0.20878048614688   -4.45187834286402
H         3.54528591486641    0.28112107857565   -2.90383768811225
H         2.61256686904911   -1.18413071364108   -3.34895712335067
23
 energy: -30.647019553867 gnorm: 0.005453854661 xtb: 6.3.2 (30e43eb)
C         2.89526649794853   -1.16193164355273   -0.34760278053583
C         3.21636669822322   -0.00884092974375    0.59675594807070
C         1.64362358617609    1.48591974922009   -0.65437670264057
H         0.03487911713370    0.40902039412650   -1.53861747629777
C         3.06789419618520    1.32330138755061   -0.13029754643809
H         1.54690065662002    2.41107924982061   -1.23090242886736
H         0.96184581708001    1.55834938177576    0.19925418529011
C         1.47452754403072   -1.03997847573374   -0.90024539448686
H         2.52758169029437   -0.03146945681283    1.44521472670499
H         4.23384141630886   -0.11583764486147    0.97936813210474
C         1.13142864906501    0.32135979466760   -1.52502505295729
H         0.76673361374906   -1.18899410352218   -0.08337369830621
H         1.27940069962964   -1.81784058172069   -1.63909935788049
H         3.78608521026653    1.38197755218270   -0.95117708866677
H         3.27996490588062    2.14711991529005    0.55546024783238
H         3.62428492183943   -1.17502929711397   -1.15750694835746
H         2.97550946655953   -2.11060808939548    0.18712940260873
Br       -3.35464879013146    0.34127357958800    0.15683183628115
O         1.44203166474724    0.47063883438604   -2.90617876173423
C         2.64527037532488   -0.07320109458777   -3.41129958885344
H         2.67700211872086    0.23253225305872   -4.45548897756480
H         3.52714634265949    0.32022554387223   -2.89756016969405
H         2.64365360169889   -1.16846631848769   -3.35894250560490
23
 energy: -30.647312212738 gnorm: 0.004445785690 xtb: 6.3.2 (30e43eb)
C         2.89294139663234   -1.16951232961182   -0.34311392204661
C         3.20999127213009   -0.01542332175494    0.60101449482775
C         1.66415537676169    1.48590913875088   -0.67914696756360
H         0.03723830228338    0.40864497628915   -1.53100686664642
C         3.08199065155497    1.31173296025716   -0.13936619390431
H         1.58887362962070    2.39715747249258   -1.27878633776339
H         0.98015056609757    1.59292937135291    0.16931343866823
C         1.47163219114222   -1.04593767295073   -0.89349512265070
H         2.50668522231279   -0.02707846260835    1.43759805335068
H         4.21960614257368   -0.12814938907311    1.00102454661544
C         1.13274359796240    0.31210328648969   -1.52675773046698
H         0.76664493770950   -1.18353932672685   -0.07027370976850
H         1.27051738177432   -1.83564450189916   -1.62122131783128
H         3.81107706373531    1.35450375939909   -0.95063716656725
H         3.29570582988738    2.13989694535132    0.54052304877176
H         3.62155508929143   -1.18024887029752   -1.15354434425237
H         2.97432203550900   -2.11872434657213    0.19072528152532
Br       -3.46855762690920    0.31845772583418    0.21775673364519
O         1.42446634625644    0.44587649817650   -2.91729828867024
C         2.65387464407399   -0.04760718370277   -3.41209402554558
H         2.67740190023683    0.25686136507965   -4.45625852335420
H         3.51773874116780    0.38122217788876   -2.89479068205631
H         2.69583530820702   -1.14283027215717   -3.35784439830924
23
 energy: -30.647588462601 gnorm: 0.004518062600 xtb: 6.3.2 (30e43eb)
C         2.88781062755765   -1.17835379709937   -0.33705165714998
C         3.20206124763056   -0.02208440572270    0.60504162940418
C         1.68493114978708    1.48463562181843   -0.70455568059618
H         0.04041798942817    0.40512328176816   -1.53288060228339
C         3.09619617234833    1.29838123429378   -0.15032673163527
H         1.63352702007650    2.37916340834696   -1.33007261413253
H         0.99753392969019    1.62911921736053    0.13529646220579
C         1.46639022306808   -1.05052080752220   -0.88620205079693
H         2.48561162341684   -0.02163942147718    1.43015066732652
H         4.20391211116640   -0.13923213231143    1.02137839272729
C         1.13515096801149    0.30387818677274   -1.52984938189675
H         0.76336675619702   -1.17482506435668   -0.05659927369085
H         1.25622346973386   -1.85076772624302   -1.60428553563603
H         3.83221982645855    1.31963520207819   -0.95538712629871
H         3.31642272658668    2.13262797685043    0.52003553548035
H         3.61558076298829   -1.18836381684026   -1.14848386271719
H         2.96861615962952   -2.12822802368468    0.19626409389955
Br       -3.59360343045542    0.28814907068088    0.29753957162526
O         1.41906838429962    0.42126675913374   -2.92214297412249
C         2.66780203408620   -0.01881649955767   -3.41144686491827
H         2.67721404304457    0.28108298666817   -4.45771448712254
H         3.51020639630748    0.45096841951212   -2.89629445943035
H         2.75992980895473   -1.11059967046129   -3.35009305023366
23
 energy: -30.647711447149 gnorm: 0.006352949421 xtb: 6.3.2 (30e43eb)
C         2.88221900406975   -1.18530850760837   -0.33238147058335
C         3.19507207274154   -0.02802180636947    0.60837807104482
C         1.70444523178262    1.48639742307562   -0.72817453935672
H         0.04461035368539    0.40690598361497   -1.53295544797301
C         3.10863917155023    1.28753395428947   -0.15755035437340
H         1.67518759890255    2.36840684052989   -1.37217045982089
H         1.01378543331505    1.66166727558349    0.10273883133084
C         1.46123765884273   -1.05311296413247   -0.88077272079609
H         2.46934444373054   -0.01892682596293    1.42520365836012
H         4.19130659925437   -0.14954318581388    1.03699389991280
C         1.13909662274978    0.29894475666732   -1.53441446625393
H         0.75811441484802   -1.17032456742734   -0.04969403025124
H         1.24667881686444   -1.85539445016075   -1.59493608546954
H         3.85230963503957    1.29208283298401   -0.95638743791477
H         3.33378414797808    2.12493139692816    0.50738252122531
H         3.61041710386390   -1.19612960189460   -1.14363889245368
H         2.96076969406232   -2.13569013588913    0.20049489215092
Br       -3.71412837654333    0.25739895702439    0.37890587979061
O         1.40797216723028    0.39176973226266   -2.93375341852620
C         2.68112924822900    0.00271930546766   -3.41227781394432
H         2.68322480975384    0.29343115312667   -4.46156383394522
H         3.50022918839708    0.51578249289842   -2.89506019829604
H         2.82114495966520   -1.08492005918600   -3.34204658384890
23
 energy: -30.647798505886 gnorm: 0.003750943305 xtb: 6.3.2 (30e43eb)
C         2.87617616814094   -1.18877114177230   -0.32899464651780
C         3.19120960118086   -0.02983883467977    0.60878485190487
C         1.71116610656017    1.48722927980536   -0.73756933257158
H         0.04914292106379    0.41259398601328   -1.54200433187239
C         3.11176149633098    1.28264492834422   -0.16095559387643
H         1.69036048819746    2.36413086967704   -1.38465290202696
H         1.01946833643831    1.67038312178610    0.08652614828321
C         1.45705630106677   -1.05225400960039   -0.88053265381910
H         2.46545946374117   -0.01652235166890    1.42459471319448
H         4.18631124473793   -0.15240311217837    1.03891335668441
C         1.14377654429310    0.30037519388380   -1.53982642902450
H         0.75162284855869   -1.16580060713588   -0.05156066697663
H         1.24072813299021   -1.85180904930791   -1.59476472522954
H         3.85564324381540    1.27870995088829   -0.95904200528275
H         3.34148523790090    2.12139681236670    0.50029518218291
H         3.60544138661001   -1.20411918534296   -1.13925157044261
H         2.95017134455736   -2.13839403900819    0.20583071622440
Br       -3.76741407573423    0.23312031651925    0.43153390057832
O         1.41703606035371    0.38198429828400   -2.93668398166535
C         2.69241368285972    0.01217223947794   -3.41150905700525
H         2.68653344635676    0.28991095343027   -4.46462095781708
H         3.50004538413406    0.54268337329672   -2.90378887414466
H         2.85099463585837   -1.06682299307101   -3.32840114077223
23
 energy: -30.647858904506 gnorm: 0.002123904438 xtb: 6.3.2 (30e43eb)
C         2.87031587054246   -1.19209022822390   -0.32568578429577
C         3.18818521113775   -0.03192566219458    0.60960408022327
C         1.71792679709878    1.48746721102897   -0.74596244413044
H         0.04908857852126    0.41663235448356   -1.54573093420379
C         3.11555589555426    1.27864306904605   -0.16337124698042
H         1.70753580022377    2.36181196947597   -1.40004007955868
H         1.02346918292319    1.68177686264349    0.07429171720030
C         1.45342600803747   -1.05253425931418   -0.88191792979294
H         2.46187332676014   -0.01399501108687    1.42499627317332
H         4.18289621826283   -0.15704713841346    1.04063945276000
C         1.14330814970519    0.30015545016409   -1.54379508257217
H         0.74510490376836   -1.16413891432340   -0.05641662070848
H         1.23768017502869   -1.84753475220499   -1.59986908549069
H         3.86317388103229    1.26979867001740   -0.95814639834970
H         3.34567721896604    2.11818569094452    0.49647088188983
H         3.60167209013307   -1.21248192382659   -1.13398935595470
H         2.93948551259175   -2.14029323293777    0.21209793219993
Br       -3.80437171524032    0.21548653939350    0.47667435475555
O         1.41548879520918    0.36995161183279   -2.94043225126695
C         2.69923818083150    0.01904321868790   -3.41191547355329
H         2.69098709441409    0.28511665754566   -4.46837781003444
H         3.49441992917423    0.57554313258046   -2.90959094471014
H         2.88445289533571   -1.05697131531195   -3.31721325059240
23
 energy: -30.647913507121 gnorm: 0.002487273128 xtb: 6.3.2 (30e43eb)
C         2.86262480233959   -1.19522467921938   -0.32265871632253
C         3.18496789843269   -0.03340271102990    0.60930266150488
C         1.72172796921700    1.48870207856597   -0.75280226560132
H         0.05062412928298    0.42215643275951   -1.55251084180903
C         3.11692251837630    1.27645034038275   -0.16556633474750
H         1.71527632719591    2.36415212954190   -1.40607285565640
H         1.02582867372538    1.68557984846273    0.06586222849716
C         1.44892903831733   -1.05206819961215   -0.88563136072081
H         2.46025811363719   -0.01124196600172    1.42665552153486
H         4.18073926023611   -0.16214165024605    1.03827111304350
C         1.14415068577292    0.30146577745969   -1.54987107244212
H         0.73558427313845   -1.16431544436498   -0.06537570894240
H         1.23681925945503   -1.84173164219140   -1.60938163206666
H         3.86846222862458    1.26635227907446   -0.95677921652759
H         3.34509863178911    2.11581319036159    0.49501768990264
H         3.59769686343515   -1.22363399616698   -1.12754163860552
H         2.92413930089508   -2.14093152278399    0.22042382757674
Br       -3.81137810421952    0.19855308908405    0.51876022150844
O         1.41578490758047    0.36304448467644   -2.94707709192903
C         2.70622039000233    0.02412115212678   -3.41221070995659
H         2.69552114502937    0.26924008830885   -4.47385804211849
H         3.49035921026605    0.60572638764581   -2.91843411626011
H         2.91023247748062   -1.04606546682855   -3.29620165985601
23
 energy: -30.647970277100 gnorm: 0.002645183637 xtb: 6.3.2 (30e43eb)
C         2.85240590855123   -1.19841496649394   -0.31947552586978
C         3.18101093201733   -0.03426983980864    0.60790573323282
C         1.72157400838056    1.48930950839142   -0.75645710059565
H         0.05169308741219    0.42937268292422   -1.56291088083139
C         3.11551769832023    1.27557198678908   -0.16784935617290
H         1.71431321651069    2.36882078643261   -1.40558790980565
H         1.02492761820079    1.68171207587490    0.06327288443763
C         1.44333055178494   -1.05085786235337   -0.89285827902037
H         2.46030829808234   -0.00766693497167    1.42920126033631
H         4.17875584588942   -0.16669546852761    1.03223454932756
C         1.14444065847088    0.30460391118593   -1.55733461201489
H         0.72295904632424   -1.16414827648546   -0.07927410895605
H         1.23685016886081   -1.83733671343347   -1.62048002311985
H         3.86977444653547    1.26596813645783   -0.95643422018600
H         3.34147133207084    2.11438488374378    0.49443990890693
H         3.59278564290025   -1.23815177730212   -1.11926776243656
H         2.90350257003656   -2.14053781393697    0.23121841216257
Br       -3.78415555521237    0.18210160110577    0.55796475447743
O         1.42017480867840    0.36372633353535   -2.95328490061075
C         2.71381889534291    0.02871218260425   -3.41158024066266
H         2.69869042271377    0.24408342902008   -4.48021296333198
H         3.48928781065204    0.63476604443581   -2.93529243562750
H         2.93315258748395   -1.03445390918431   -3.26561718363491
23
 energy: -30.648010731106 gnorm: 0.002073267976 xtb: 6.3.2 (30e43eb)
C         2.84325615905396   -1.20106183258054   -0.31657833415142
C         3.17644312728709   -0.03500945846805    0.60693967983093
C         1.72054124361569    1.48900695462283   -0.75966400387254
H         0.05188504532238    0.43325355090092   -1.57277076975158
C         3.11401270582570    1.27406959507680   -0.17104549488131
H         1.71044091099237    2.37159348976809   -1.40388748913131
H         1.02423731689665    1.67586710152181    0.06185501098062
C         1.43782230490727   -1.04919992239172   -0.89814583576570
H         2.45762724628544   -0.00414554318992    1.42986289105924
H         4.17460639419587   -0.16995767075646    1.02951530536572
C         1.14427693249935    0.30669847295897   -1.56373929303738
H         0.71209476240564   -1.16221742510971   -0.08875265332078
H         1.23470608475529   -1.83663157813724   -1.62675267567047